 Entering Gaussian System, Link 0=/share/apps/Gaussian/g09/g09
 Initial command:
 /share/apps/Gaussian/g09/l1.exe "/state/partition1/Gau-29552.inp" -scrdir="/state/partition1/"
 Entering Link 1 = /share/apps/Gaussian/g09/l1.exe PID=     29553.
  
 Copyright (c) 1988,1990,1992,1993,1995,1998,2003,2009,2013,
            Gaussian, Inc.  All Rights Reserved.
  
 This is part of the Gaussian(R) 09 program.  It is based on
 the Gaussian(R) 03 system (copyright 2003, Gaussian, Inc.),
 the Gaussian(R) 98 system (copyright 1998, Gaussian, Inc.),
 the Gaussian(R) 94 system (copyright 1995, Gaussian, Inc.),
 the Gaussian 92(TM) system (copyright 1992, Gaussian, Inc.),
 the Gaussian 90(TM) system (copyright 1990, Gaussian, Inc.),
 the Gaussian 88(TM) system (copyright 1988, Gaussian, Inc.),
 the Gaussian 86(TM) system (copyright 1986, Carnegie Mellon
 University), and the Gaussian 82(TM) system (copyright 1983,
 Carnegie Mellon University). Gaussian is a federally registered
 trademark of Gaussian, Inc.
  
 This software contains proprietary and confidential information,
 including trade secrets, belonging to Gaussian, Inc.
  
 This software is provided under written license and may be
 used, copied, transmitted, or stored only in accord with that
 written license.
  
 The following legend is applicable only to US Government
 contracts under FAR:
  
                    RESTRICTED RIGHTS LEGEND
  
 Use, reproduction and disclosure by the US Government is
 subject to restrictions as set forth in subparagraphs (a)
 and (c) of the Commercial Computer Software - Restricted
 Rights clause in FAR 52.227-19.
  
 Gaussian, Inc.
 340 Quinnipiac St., Bldg. 40, Wallingford CT 06492
  
  
 ---------------------------------------------------------------
 Warning -- This program may not be used in any manner that
 competes with the business of Gaussian, Inc. or will provide
 assistance to any competitor of Gaussian, Inc.  The licensee
 of this program is prohibited from giving any competitor of
 Gaussian, Inc. access to this program.  By using this program,
 the user acknowledges that Gaussian, Inc. is engaged in the
 business of creating and licensing software in the field of
 computational chemistry and represents and warrants to the
 licensee that it is not a competitor of Gaussian, Inc. and that
 it will not use this program in any manner prohibited above.
 ---------------------------------------------------------------
  

 Cite this work as:
 Gaussian 09, Revision D.01,
 M. J. Frisch, G. W. Trucks, H. B. Schlegel, G. E. Scuseria, 
 M. A. Robb, J. R. Cheeseman, G. Scalmani, V. Barone, B. Mennucci, 
 G. A. Petersson, H. Nakatsuji, M. Caricato, X. Li, H. P. Hratchian, 
 A. F. Izmaylov, J. Bloino, G. Zheng, J. L. Sonnenberg, M. Hada, 
 M. Ehara, K. Toyota, R. Fukuda, J. Hasegawa, M. Ishida, T. Nakajima, 
 Y. Honda, O. Kitao, H. Nakai, T. Vreven, J. A. Montgomery, Jr., 
 J. E. Peralta, F. Ogliaro, M. Bearpark, J. J. Heyd, E. Brothers, 
 K. N. Kudin, V. N. Staroverov, T. Keith, R. Kobayashi, J. Normand, 
 K. Raghavachari, A. Rendell, J. C. Burant, S. S. Iyengar, J. Tomasi, 
 M. Cossi, N. Rega, J. M. Millam, M. Klene, J. E. Knox, J. B. Cross, 
 V. Bakken, C. Adamo, J. Jaramillo, R. Gomperts, R. E. Stratmann, 
 O. Yazyev, A. J. Austin, R. Cammi, C. Pomelli, J. W. Ochterski, 
 R. L. Martin, K. Morokuma, V. G. Zakrzewski, G. A. Voth, 
 P. Salvador, J. J. Dannenberg, S. Dapprich, A. D. Daniels, 
 O. Farkas, J. B. Foresman, J. V. Ortiz, J. Cioslowski, 
 and D. J. Fox, Gaussian, Inc., Wallingford CT, 2013.
 
 ******************************************
 Gaussian 09:  ES64L-G09RevD.01 24-Apr-2013
                 4-May-2017 
 ******************************************
 % mem=8GB
 % NProcShared=4
 Will use up to    4 processors via shared memory.
 % Chk=lig
 --------------------------------------------
 # wB97XD/6-311++G(d,p) SCF=QC opt=tight freq
 --------------------------------------------
 1/7=10,14=-1,18=20,19=15,26=3,38=1/1,3;
 2/9=110,12=2,17=6,18=5,40=1/2;
 3/5=4,6=6,7=1111,11=2,16=1,25=1,30=1,71=1,74=-58/1,2,3;
 4//1;
 5/5=2,8=3,38=5/8;
 6/7=2,8=2,9=2,10=2,28=1/1;
 7//1,2,3,16;
 1/7=10,14=-1,18=20,19=15,26=3/3(2);
 2/9=110/2;
 99//99;
 2/9=110/2;
 3/5=4,6=6,7=1111,11=2,16=1,25=1,30=1,71=1,74=-58/1,2,3;
 4/5=5,16=3,69=1/1;
 5/5=2,8=3,38=5/8;
 7//1,2,3,16;
 1/7=10,14=-1,18=20,19=15,26=3/3(-5);
 2/9=110/2;
 6/7=2,8=2,9=2,10=2,19=2,28=1/1;
 99/9=1/99;
 ------
 ligand
 ------
 Symbolic Z-matrix:
 Charge =  0 Multiplicity = 1
 C                     1.        1.        0. 
 C                    -0.399     1.        0. 
 C                     1.7      -0.212     0. 
 H                     1.541     1.937     0. 
 C                    -1.099    -0.212     0. 
 H                    -0.94      1.937     0. 
 C                    -0.399    -1.423     0. 
 H                    -2.181    -0.212     0. 
 C                     1.       -1.423     0. 
 H                    -0.94     -2.361     0. 
 H                     1.541    -2.361     0. 
 H                     2.782    -0.212     0. 
 

 GradGradGradGradGradGradGradGradGradGradGradGradGradGradGradGradGradGrad
 Berny optimization.
 Initialization pass.
                           ----------------------------
                           !    Initial Parameters    !
                           ! (Angstroms and Degrees)  !
 --------------------------                            --------------------------
 ! Name  Definition              Value          Derivative Info.                !
 --------------------------------------------------------------------------------
 ! R1    R(1,2)                  1.399          estimate D2E/DX2                !
 ! R2    R(1,3)                  1.3996         estimate D2E/DX2                !
 ! R3    R(1,4)                  1.082          estimate D2E/DX2                !
 ! R4    R(2,5)                  1.3996         estimate D2E/DX2                !
 ! R5    R(2,6)                  1.082          estimate D2E/DX2                !
 ! R6    R(3,9)                  1.3988         estimate D2E/DX2                !
 ! R7    R(3,12)                 1.082          estimate D2E/DX2                !
 ! R8    R(5,7)                  1.3988         estimate D2E/DX2                !
 ! R9    R(5,8)                  1.082          estimate D2E/DX2                !
 ! R10   R(7,9)                  1.399          estimate D2E/DX2                !
 ! R11   R(7,10)                 1.0828         estimate D2E/DX2                !
 ! R12   R(9,11)                 1.0828         estimate D2E/DX2                !
 ! A1    A(2,1,3)              120.0089         estimate D2E/DX2                !
 ! A2    A(2,1,4)              120.001          estimate D2E/DX2                !
 ! A3    A(3,1,4)              119.99           estimate D2E/DX2                !
 ! A4    A(1,2,5)              120.0089         estimate D2E/DX2                !
 ! A5    A(1,2,6)              120.001          estimate D2E/DX2                !
 ! A6    A(5,2,6)              119.99           estimate D2E/DX2                !
 ! A7    A(1,3,9)              119.9617         estimate D2E/DX2                !
 ! A8    A(1,3,12)             120.0089         estimate D2E/DX2                !
 ! A9    A(9,3,12)             120.0294         estimate D2E/DX2                !
 ! A10   A(2,5,7)              119.9617         estimate D2E/DX2                !
 ! A11   A(2,5,8)              120.0089         estimate D2E/DX2                !
 ! A12   A(7,5,8)              120.0294         estimate D2E/DX2                !
 ! A13   A(5,7,9)              120.0294         estimate D2E/DX2                !
 ! A14   A(5,7,10)             119.996          estimate D2E/DX2                !
 ! A15   A(9,7,10)             119.9746         estimate D2E/DX2                !
 ! A16   A(3,9,7)              120.0294         estimate D2E/DX2                !
 ! A17   A(3,9,11)             119.996          estimate D2E/DX2                !
 ! A18   A(7,9,11)             119.9746         estimate D2E/DX2                !
 ! D1    D(3,1,2,5)              0.0            estimate D2E/DX2                !
 ! D2    D(3,1,2,6)            180.0            estimate D2E/DX2                !
 ! D3    D(4,1,2,5)            180.0            estimate D2E/DX2                !
 ! D4    D(4,1,2,6)              0.0            estimate D2E/DX2                !
 ! D5    D(2,1,3,9)              0.0            estimate D2E/DX2                !
 ! D6    D(2,1,3,12)           180.0            estimate D2E/DX2                !
 ! D7    D(4,1,3,9)            180.0            estimate D2E/DX2                !
 ! D8    D(4,1,3,12)             0.0            estimate D2E/DX2                !
 ! D9    D(1,2,5,7)              0.0            estimate D2E/DX2                !
 ! D10   D(1,2,5,8)            180.0            estimate D2E/DX2                !
 ! D11   D(6,2,5,7)            180.0            estimate D2E/DX2                !
 ! D12   D(6,2,5,8)              0.0            estimate D2E/DX2                !
 ! D13   D(1,3,9,7)              0.0            estimate D2E/DX2                !
 ! D14   D(1,3,9,11)           180.0            estimate D2E/DX2                !
 ! D15   D(12,3,9,7)           180.0            estimate D2E/DX2                !
 ! D16   D(12,3,9,11)            0.0            estimate D2E/DX2                !
 ! D17   D(2,5,7,9)              0.0            estimate D2E/DX2                !
 ! D18   D(2,5,7,10)           180.0            estimate D2E/DX2                !
 ! D19   D(8,5,7,9)            180.0            estimate D2E/DX2                !
 ! D20   D(8,5,7,10)             0.0            estimate D2E/DX2                !
 ! D21   D(5,7,9,3)              0.0            estimate D2E/DX2                !
 ! D22   D(5,7,9,11)           180.0            estimate D2E/DX2                !
 ! D23   D(10,7,9,3)           180.0            estimate D2E/DX2                !
 ! D24   D(10,7,9,11)            0.0            estimate D2E/DX2                !
 --------------------------------------------------------------------------------
 Trust Radius=3.00D-01 FncErr=1.00D-07 GrdErr=1.00D-06
 Number of steps in this run=     64 maximum allowed number of steps=    100.
 GradGradGradGradGradGradGradGradGradGradGradGradGradGradGradGradGradGrad

                          Input orientation:                          
 ---------------------------------------------------------------------
 Center     Atomic      Atomic             Coordinates (Angstroms)
 Number     Number       Type             X           Y           Z
 ---------------------------------------------------------------------
      1          6           0        1.000000    1.000000    0.000000
      2          6           0       -0.399000    1.000000    0.000000
      3          6           0        1.700000   -0.212000    0.000000
      4          1           0        1.541000    1.937000    0.000000
      5          6           0       -1.099000   -0.212000    0.000000
      6          1           0       -0.940000    1.937000    0.000000
      7          6           0       -0.399000   -1.423000    0.000000
      8          1           0       -2.181000   -0.212000    0.000000
      9          6           0        1.000000   -1.423000    0.000000
     10          1           0       -0.940000   -2.361000    0.000000
     11          1           0        1.541000   -2.361000    0.000000
     12          1           0        2.782000   -0.212000    0.000000
 ---------------------------------------------------------------------
                    Distance matrix (angstroms):
                    1          2          3          4          5
     1  C    0.000000
     2  C    1.399000   0.000000
     3  C    1.399623   2.423787   0.000000
     4  H    1.081966   2.154430   2.154874   0.000000
     5  C    2.423787   1.399623   2.799000   3.404086   0.000000
     6  H    2.154430   1.081966   3.404086   2.481000   2.154874
     7  C    2.797880   2.423000   2.423287   3.879845   1.398757
     8  H    3.404072   2.155103   3.881000   4.297847   1.082000
     9  C    2.423000   2.797880   1.398757   3.403275   2.423287
    10  H    3.880711   3.404262   3.404086   4.962677   2.154874
    11  H    3.404262   3.880711   2.154874   4.298000   3.404086
    12  H    2.155103   3.404072   1.082000   2.481589   3.881000
                    6          7          8          9         10
     6  H    0.000000
     7  C    3.403275   0.000000
     8  H    2.481589   2.154541   0.000000
     9  C    3.879845   1.399000   3.403716   0.000000
    10  H    4.298000   1.082832   2.481589   2.154865   0.000000
    11  H    4.962677   2.154865   4.297847   1.082832   2.481000
    12  H    4.297847   3.403716   4.963000   2.154541   4.297847
                   11         12
    11  H    0.000000
    12  H    2.481589   0.000000
 Stoichiometry    C6H6
 Framework group  C2V[SGV(C6H6)]
 Deg. of freedom    11
 Full point group                 C2V     NOp   4
 Largest Abelian subgroup         C2V     NOp   4
 Largest concise Abelian subgroup C2      NOp   2
                         Standard orientation:                         
 ---------------------------------------------------------------------
 Center     Atomic      Atomic             Coordinates (Angstroms)
 Number     Number       Type             X           Y           Z
 ---------------------------------------------------------------------
      1          6           0        0.000000    0.699500    1.211714
      2          6           0        0.000000   -0.699500    1.211714
      3          6           0        0.000000    1.399500   -0.000286
      4          1           0        0.000000    1.240500    2.148714
      5          6           0        0.000000   -1.399500   -0.000286
      6          1           0        0.000000   -1.240500    2.148714
      7          6           0        0.000000   -0.699500   -1.211286
      8          1           0        0.000000   -2.481500   -0.000286
      9          6           0        0.000000    0.699500   -1.211286
     10          1           0        0.000000   -1.240500   -2.149286
     11          1           0        0.000000    1.240500   -2.149286
     12          1           0        0.000000    2.481500   -0.000286
 ---------------------------------------------------------------------
 Rotational constants (GHZ):      5.6740482      5.6715080      2.8363889
 Standard basis: 6-311++G(d,p) (5D, 7F)
 There are    69 symmetry adapted cartesian basis functions of A1  symmetry.
 There are    21 symmetry adapted cartesian basis functions of A2  symmetry.
 There are    21 symmetry adapted cartesian basis functions of B1  symmetry.
 There are    69 symmetry adapted cartesian basis functions of B2  symmetry.
 There are    66 symmetry adapted basis functions of A1  symmetry.
 There are    21 symmetry adapted basis functions of A2  symmetry.
 There are    21 symmetry adapted basis functions of B1  symmetry.
 There are    66 symmetry adapted basis functions of B2  symmetry.
   174 basis functions,   270 primitive gaussians,   180 cartesian basis functions
    21 alpha electrons       21 beta electrons
       nuclear repulsion energy       203.0111209335 Hartrees.
 NAtoms=   12 NActive=   12 NUniq=    6 SFac= 4.00D+00 NAtFMM=   60 NAOKFM=F Big=F
 Integral buffers will be    131072 words long.
 Raffenetti 2 integral format.
 Two-electron integral symmetry is turned on.
 Nuclear repulsion after empirical dispersion term =      203.0069352816 Hartrees.
 One-electron integrals computed using PRISM.
 NBasis=   174 RedAO= T EigKep=  1.10D-06  NBF=    66    21    21    66
 NBsUse=   174 1.00D-06 EigRej= -1.00D+00 NBFU=    66    21    21    66
 ExpMin= 3.60D-02 ExpMax= 4.56D+03 ExpMxC= 6.82D+02 IAcc=3 IRadAn=         5 AccDes= 0.00D+00
 Harris functional with IExCor= 4639 and IRadAn=       5 diagonalized for initial guess.
 HarFok:  IExCor= 4639 AccDes= 0.00D+00 IRadAn=         5 IDoV= 1 UseB2=F ITyADJ=14
 ICtDFT=  3500011 ScaDFX=  1.000000  1.000000  1.000000  1.000000
 FoFCou: FMM=F IPFlag=           0 FMFlag=      100000 FMFlg1=           0
         NFxFlg=           0 DoJE=T BraDBF=F KetDBF=T FulRan=T
         wScrn=  0.000000 ICntrl=     500 IOpCl=  0 I1Cent=   200000004 NGrid=           0
         NMat0=    1 NMatS0=      1 NMatT0=    0 NMatD0=    1 NMtDS0=    0 NMtDT0=    0
 Petite list used in FoFCou.
 Initial guess orbital symmetries:
       Occupied  (A1) (B2) (A1) (A1) (B2) (B2) (A1) (B2) (A1) (A1)
                 (B2) (A1) (A1) (B2) (B2) (A1) (B1) (A1) (B2) (B1)
                 (A2)
       Virtual   (B1) (A2) (A1) (A1) (B2) (A1) (B2) (B2) (B1) (A1)
                 (B1) (A2) (A1) (A1) (A2) (A1) (B2) (B2) (A1) (B1)
                 (A2) (B2) (A1) (B2) (A1) (B2) (A2) (A1) (B2) (A1)
                 (B2) (A1) (B2) (A1) (B2) (B2) (A1) (B2) (B2) (B2)
                 (A1) (A1) (B2) (A1) (A1) (B1) (B2) (B2) (A1) (B2)
                 (A1) (B2) (B1) (A2) (A1) (B1) (A2) (A2) (B2) (A1)
                 (A1) (B2) (A1) (B2) (A1) (B2) (B2) (B2) (B2) (A1)
                 (A1) (B2) (B1) (B1) (A1) (B2) (A2) (B1) (B1) (A2)
                 (A1) (B2) (A1) (B2) (A1) (A1) (A2) (B1) (A2) (B2)
                 (A1) (B2) (A1) (B1) (B1) (A2) (A1) (B2) (A1) (B1)
                 (A2) (B2) (A1) (B2) (B2) (A1) (B2) (A2) (B1) (A2)
                 (A2) (A1) (A1) (B2) (A1) (B2) (A1) (B2) (B1) (B2)
                 (A1) (B2) (A1) (A1) (B2) (B1) (A2) (B2) (A2) (B1)
                 (B2) (B2) (A1) (A2) (A1) (B2) (A1) (A1) (B2) (A1)
                 (B2) (B2) (A1) (B2) (A1) (B2) (B2) (A1) (A1) (B2)
                 (A1) (B2) (B2)
 The electronic state of the initial guess is 1-A1.
 Keep R1 ints in memory in symmetry-blocked form, NReq=294359170.
 Gradient too large for Newton-Raphson -- use scaled steepest descent instead.
 Gradient too large for Newton-Raphson -- use scaled steepest descent instead.
 Gradient too large for Newton-Raphson -- use scaled steepest descent instead.
 LinEq1:  Iter=  0 NonCon=     1 RMS=7.22D-05 Max=1.44D-03 NDo=     1
 AX will form     1 AO Fock derivatives at one time.
 LinEq1:  Iter=  1 NonCon=     1 RMS=3.13D-05 Max=5.67D-04 NDo=     1
 LinEq1:  Iter=  2 NonCon=     1 RMS=2.09D-06 Max=4.12D-05 NDo=     1
 LinEq1:  Iter=  3 NonCon=     1 RMS=7.95D-07 Max=2.27D-05 NDo=     1
 LinEq1:  Iter=  4 NonCon=     1 RMS=2.73D-07 Max=3.16D-06 NDo=     1
 LinEq1:  Iter=  5 NonCon=     1 RMS=4.48D-08 Max=9.15D-07 NDo=     1
 LinEq1:  Iter=  6 NonCon=     1 RMS=2.41D-08 Max=4.23D-07 NDo=     1
 LinEq1:  Iter=  7 NonCon=     1 RMS=5.97D-09 Max=1.86D-07 NDo=     1
 LinEq1:  Iter=  8 NonCon=     0 RMS=1.37D-09 Max=2.25D-08 NDo=     1
 Linear equations converged to 8.016D-09 8.016D-08 after     8 iterations.
     Minimum is close to point  2 DX=  1.35D-03 DF= -4.16D-11 DXR=  1.35D-03 DFR=  1.83D-06 which will be used.
 LinEq1:  Iter=  0 NonCon=     1 RMS=1.10D-07 Max=3.27D-06 NDo=     1
 LinEq1:  Iter=  1 NonCon=     1 RMS=4.31D-08 Max=5.85D-07 NDo=     1
 LinEq1:  Iter=  2 NonCon=     1 RMS=6.91D-09 Max=8.45D-08 NDo=     1
 LinEq1:  Iter=  3 NonCon=     1 RMS=1.76D-09 Max=2.22D-08 NDo=     1
 LinEq1:  Iter=  4 NonCon=     1 RMS=2.18D-10 Max=5.15D-09 NDo=     1
 LinEq1:  Iter=  5 NonCon=     1 RMS=1.38D-10 Max=4.23D-09 NDo=     1
 LinEq1:  Iter=  6 NonCon=     1 RMS=2.60D-11 Max=7.65D-10 NDo=     1
 LinEq1:  Iter=  7 NonCon=     0 RMS=9.50D-12 Max=1.60D-10 NDo=     1
 Linear equations converged to 5.703D-11 5.703D-10 after     7 iterations.
 SCF Done:  E(RwB97XD) =  -232.220561046     a.u. after    6 cycles
            Convg  =    0.1583D-08                    29 Fock formations.
              S**2 =  0.0000                  -V/T =  2.0049

 **********************************************************************

            Population analysis using the SCF density.

 **********************************************************************

 Orbital symmetries:
       Occupied  (A1) (A1) (B2) (B2) (A1) (B2) (A1) (B2) (A1) (A1)
                 (B2) (A1) (B2) (A1) (B2) (A1) (B1) (A1) (B2) (B1)
                 (A2)
       Virtual   (A1) (B1) (B2) (A1) (A2) (A1) (B2) (B2) (B1) (A1)
                 (A2) (B1) (A1) (A1) (B2) (A1) (A1) (B2) (A2) (B1)
                 (A2) (B2) (A1) (B2) (B2) (A1) (A1) (B2) (A2) (B2)
                 (A1) (A1) (B2) (B2) (A1) (B2) (B2) (A1) (B2) (B2)
                 (A1) (A1) (B2) (A1) (A1) (B1) (B2) (A1) (B2) (B2)
                 (A1) (B2) (B1) (A2) (A1) (B1) (A2) (A2) (B2) (A1)
                 (A1) (B2) (A1) (B2) (B2) (A1) (B2) (B2) (B2) (A1)
                 (A1) (B2) (B1) (B1) (A1) (B2) (A2) (B1) (B1) (A2)
                 (A1) (B2) (A1) (B2) (A1) (A1) (A2) (A2) (B1) (B2)
                 (A1) (B2) (A1) (B1) (B1) (A2) (A1) (B2) (A1) (B1)
                 (A2) (B2) (A1) (B2) (B2) (A1) (B2) (A2) (B1) (A2)
                 (A2) (A1) (A1) (B2) (A1) (B2) (A1) (B2) (B2) (B1)
                 (A1) (B2) (A1) (A1) (B2) (B2) (B1) (A2) (A2) (B1)
                 (B2) (B2) (A1) (A2) (A1) (B2) (A1) (A1) (B2) (A1)
                 (B2) (B2) (A1) (B2) (A1) (B2) (B2) (A1) (A1) (B2)
                 (A1) (B2) (B2)
 The electronic state is 1-A1.
 Alpha  occ. eigenvalues --  -10.29279 -10.29255 -10.29255 -10.29198 -10.29198
 Alpha  occ. eigenvalues --  -10.29172  -0.95775  -0.84816  -0.84813  -0.70005
 Alpha  occ. eigenvalues --   -0.69993  -0.61808  -0.55450  -0.53578  -0.51050
 Alpha  occ. eigenvalues --   -0.51039  -0.45894  -0.42937  -0.42921  -0.33265
 Alpha  occ. eigenvalues --   -0.33264
 Alpha virt. eigenvalues --    0.04272   0.05168   0.05171   0.05172   0.05177
 Alpha virt. eigenvalues --    0.06940   0.06940   0.09134   0.12252   0.13728
 Alpha virt. eigenvalues --    0.14787   0.14792   0.15954   0.16823   0.17209
 Alpha virt. eigenvalues --    0.17210   0.17229   0.17230   0.19388   0.19558
 Alpha virt. eigenvalues --    0.19560   0.20733   0.20988   0.20989   0.21147
 Alpha virt. eigenvalues --    0.21157   0.25014   0.25016   0.26476   0.28082
 Alpha virt. eigenvalues --    0.28082   0.29545   0.30778   0.33334   0.34398
 Alpha virt. eigenvalues --    0.34408   0.36053   0.36057   0.38208   0.42427
 Alpha virt. eigenvalues --    0.42430   0.42863   0.42879   0.52524   0.54419
 Alpha virt. eigenvalues --    0.60580   0.61782   0.62805   0.62809   0.63002
 Alpha virt. eigenvalues --    0.64335   0.64338   0.65081   0.65082   0.68989
 Alpha virt. eigenvalues --    0.69767   0.69768   0.75596   0.80731   0.80742
 Alpha virt. eigenvalues --    0.81762   0.81783   0.86234   0.89121   0.92119
 Alpha virt. eigenvalues --    0.92120   0.95682   0.95958   0.95982   0.95985
 Alpha virt. eigenvalues --    0.97956   0.97962   1.01887   1.09181   1.10282
 Alpha virt. eigenvalues --    1.10283   1.15951   1.15970   1.22048   1.22061
 Alpha virt. eigenvalues --    1.39064   1.40631   1.53825   1.59629   1.59655
 Alpha virt. eigenvalues --    1.60617   1.65062   1.65351   1.65358   1.72255
 Alpha virt. eigenvalues --    1.72272   1.74461   1.74484   1.80335   1.86096
 Alpha virt. eigenvalues --    1.86106   1.90261   1.90281   1.93487   2.00882
 Alpha virt. eigenvalues --    2.00923   2.03079   2.03095   2.04945   2.07693
 Alpha virt. eigenvalues --    2.10969   2.10977   2.16452   2.16472   2.40740
 Alpha virt. eigenvalues --    2.42062   2.48174   2.50377   2.50381   2.54627
 Alpha virt. eigenvalues --    2.54634   2.70880   2.70889   2.75415   2.75860
 Alpha virt. eigenvalues --    2.77476   2.80860   2.80877   2.83660   2.83670
 Alpha virt. eigenvalues --    2.87775   2.89853   2.89867   2.99543   2.99549
 Alpha virt. eigenvalues --    2.99701   3.03904   3.03924   3.17937   3.20124
 Alpha virt. eigenvalues --    3.43530   3.43553   3.57778   3.57780   3.59687
 Alpha virt. eigenvalues --    3.76179   4.09604   4.09655   4.17981   4.25505
 Alpha virt. eigenvalues --    4.25545   4.93496  23.72580  24.09675  24.09734
 Alpha virt. eigenvalues --   24.21034  24.21066  24.31872
          Condensed to atoms (all electrons):
               1          2          3          4          5          6
     1  C    5.411917   0.078762   0.076715   0.344230   0.356028   0.001255
     2  C    0.078762   5.411917   0.356028   0.001255   0.076715   0.344230
     3  C    0.076715   0.356028   5.416458   0.000854  -0.409111  -0.015673
     4  H    0.344230   0.001255   0.000854   0.470114  -0.015673   0.001921
     5  C    0.356028   0.076715  -0.409111  -0.015673   5.416458   0.000854
     6  H    0.001255   0.344230  -0.015673   0.001921   0.000854   0.470114
     7  C   -0.408660   0.356467   0.358005   0.012334   0.075311  -0.015694
     8  H   -0.015700   0.001207   0.012316  -0.000573   0.344069   0.001930
     9  C    0.356467  -0.408660   0.075311  -0.015694   0.358005   0.012334
    10  H    0.012231  -0.015562  -0.015583   0.000792   0.000880  -0.000561
    11  H   -0.015562   0.012231   0.000880  -0.000561  -0.015583   0.000792
    12  H    0.001207  -0.015700   0.344069   0.001930   0.012316  -0.000573
               7          8          9         10         11         12
     1  C   -0.408660  -0.015700   0.356467   0.012231  -0.015562   0.001207
     2  C    0.356467   0.001207  -0.408660  -0.015562   0.012231  -0.015700
     3  C    0.358005   0.012316   0.075311  -0.015583   0.000880   0.344069
     4  H    0.012334  -0.000573  -0.015694   0.000792  -0.000561   0.001930
     5  C    0.075311   0.344069   0.358005   0.000880  -0.015583   0.012316
     6  H   -0.015694   0.001930   0.012334  -0.000561   0.000792  -0.000573
     7  C    5.415293   0.001279   0.074457   0.344072   0.001162  -0.015682
     8  H    0.001279   0.469667  -0.015682   0.001914  -0.000568   0.000791
     9  C    0.074457  -0.015682   5.415293   0.001162   0.344072   0.001279
    10  H    0.344072   0.001914   0.001162   0.470207   0.001937  -0.000568
    11  H    0.001162  -0.000568   0.344072   0.001937   0.470207   0.001914
    12  H   -0.015682   0.000791   0.001279  -0.000568   0.001914   0.469667
 Mulliken charges:
               1
     1  C   -0.198889
     2  C   -0.198889
     3  C   -0.200269
     4  H    0.199071
     5  C   -0.200269
     6  H    0.199071
     7  C   -0.198343
     8  H    0.199351
     9  C   -0.198343
    10  H    0.199080
    11  H    0.199080
    12  H    0.199351
 Sum of Mulliken charges =   0.00000
 Mulliken charges with hydrogens summed into heavy atoms:
               1
     1  C    0.000182
     2  C    0.000182
     3  C   -0.000918
     5  C   -0.000918
     7  C    0.000737
     9  C    0.000737
 Electronic spatial extent (au):  <R**2>=            460.3885
 Charge=              0.0000 electrons
 Dipole moment (field-independent basis, Debye):
    X=              0.0000    Y=              0.0000    Z=              0.0005  Tot=              0.0005
 Quadrupole moment (field-independent basis, Debye-Ang):
   XX=            -40.2762   YY=            -31.5088   ZZ=            -31.5131
   XY=              0.0000   XZ=              0.0000   YZ=              0.0000
 Traceless Quadrupole moment (field-independent basis, Debye-Ang):
   XX=             -5.8435   YY=              2.9239   ZZ=              2.9196
   XY=              0.0000   XZ=              0.0000   YZ=              0.0000
 Octapole moment (field-independent basis, Debye-Ang**2):
  XXX=              0.0000  YYY=              0.0000  ZZZ=              0.0035  XYY=              0.0000
  XXY=              0.0000  XXZ=              0.0009  XZZ=              0.0000  YZZ=              0.0000
  YYZ=              0.0064  XYZ=              0.0000
 Hexadecapole moment (field-independent basis, Debye-Ang**3):
 XXXX=            -48.8665 YYYY=           -270.1499 ZZZZ=           -270.1093 XXXY=              0.0000
 XXXZ=              0.0000 YYYX=              0.0000 YYYZ=              0.0000 ZZZX=              0.0000
 ZZZY=              0.0000 XXYY=            -64.7621 XXZZ=            -64.7486 YYZZ=            -90.0636
 XXYZ=              0.0000 YYXZ=              0.0000 ZZXY=              0.0000
 N-N= 2.030069352816D+02 E-N=-9.443606685520D+02  KE= 2.310804087033D+02
 Symmetry A1   KE= 1.149930045008D+02
 Symmetry A2   KE= 2.207577493237D+00
 Symmetry B1   KE= 4.062061772987D+00
 Symmetry B2   KE= 1.098177649363D+02
 Calling FoFJK, ICntrl=      2127 FMM=F ISym2X=1 I1Cent= 0 IOpClX= 0 NMat=1 NMatS=1 NMatT=0.
 ***** Axes restored to original set *****
 -------------------------------------------------------------------
 Center     Atomic                   Forces (Hartrees/Bohr)
 Number     Number              X              Y              Z
 -------------------------------------------------------------------
      1        6          -0.004461709   -0.008565212   -0.000000009
      2        6           0.004461706   -0.008565205   -0.000000012
      3        6          -0.009870876    0.000447093    0.000000023
      4        1           0.000732116    0.001404918    0.000000000
      5        6           0.009870879    0.000447091    0.000000019
      6        1          -0.000732116    0.001404919   -0.000000003
      7        6           0.004191754    0.007600855    0.000000015
      8        1          -0.001579429   -0.000001084    0.000000002
      9        6          -0.004191755    0.007600857   -0.000000033
     10        1          -0.000451222   -0.000886574    0.000000000
     11        1           0.000451221   -0.000886574   -0.000000003
     12        1           0.001579430   -0.000001084    0.000000001
 -------------------------------------------------------------------
 Cartesian Forces:  Max     0.009870879 RMS     0.003889027

 GradGradGradGradGradGradGradGradGradGradGradGradGradGradGradGradGradGrad
 Berny optimization.
 FormGI is forming the generalized inverse of G from B-inverse, IUseBI=4.
 Internal  Forces:  Max     0.008316589 RMS     0.002713934
 Search for a local minimum.
 Step number   1 out of a maximum of   64
 All quantities printed in internal units (Hartrees-Bohrs-Radians)
 Mixed Optimization -- RFO/linear search
 Second derivative matrix not updated -- first step.
 ITU=  0
     Eigenvalues ---    0.02096   0.02097   0.02098   0.02099   0.02100
     Eigenvalues ---    0.02100   0.02103   0.02104   0.02104   0.16000
     Eigenvalues ---    0.16000   0.16000   0.16000   0.16000   0.16000
     Eigenvalues ---    0.22000   0.22000   0.22000   0.35654   0.35654
     Eigenvalues ---    0.35754   0.35754   0.35758   0.35758   0.41560
     Eigenvalues ---    0.41573   0.45702   0.45756   0.45787   0.45819
 RFO step:  Lambda=-8.75067938D-04 EMin= 2.09600259D-02
 Linear search not attempted -- first point.
 Iteration  1 RMS(Cart)=  0.00738923 RMS(Int)=  0.00000116
 Iteration  2 RMS(Cart)=  0.00000141 RMS(Int)=  0.00000032
 Iteration  3 RMS(Cart)=  0.00000000 RMS(Int)=  0.00000032
 ClnCor:  largest displacement from symmetrization is 6.04D-07 for atom    11.
 Variable       Old X    -DE/DX   Delta X   Delta X   Delta X     New X
                                 (Linear)    (Quad)   (Total)
    R1        2.64373  -0.00796   0.00000  -0.01740  -0.01740   2.62633
    R2        2.64490  -0.00832   0.00000  -0.01819  -0.01819   2.62671
    R3        2.04462   0.00158   0.00000   0.00442   0.00442   2.04903
    R4        2.64490  -0.00832   0.00000  -0.01819  -0.01819   2.62671
    R5        2.04462   0.00158   0.00000   0.00442   0.00442   2.04903
    R6        2.64327  -0.00784   0.00000  -0.01706  -0.01706   2.62620
    R7        2.04468   0.00158   0.00000   0.00441   0.00441   2.04909
    R8        2.64327  -0.00784   0.00000  -0.01706  -0.01706   2.62620
    R9        2.04468   0.00158   0.00000   0.00441   0.00441   2.04909
   R10        2.64373  -0.00780   0.00000  -0.01696  -0.01696   2.62677
   R11        2.04626   0.00099   0.00000   0.00278   0.00278   2.04904
   R12        2.04626   0.00099   0.00000   0.00278   0.00278   2.04904
    A1        2.09455   0.00001   0.00000  -0.00008  -0.00008   2.09447
    A2        2.09441  -0.00008   0.00000  -0.00039  -0.00039   2.09402
    A3        2.09422   0.00006   0.00000   0.00048   0.00048   2.09470
    A4        2.09455   0.00001   0.00000  -0.00008  -0.00008   2.09447
    A5        2.09441  -0.00008   0.00000  -0.00039  -0.00039   2.09402
    A6        2.09422   0.00006   0.00000   0.00048   0.00048   2.09470
    A7        2.09373   0.00011   0.00000   0.00051   0.00051   2.09424
    A8        2.09455  -0.00006   0.00000  -0.00025  -0.00025   2.09430
    A9        2.09491  -0.00006   0.00000  -0.00026  -0.00026   2.09465
   A10        2.09373   0.00011   0.00000   0.00051   0.00051   2.09424
   A11        2.09455  -0.00006   0.00000  -0.00025  -0.00025   2.09430
   A12        2.09491  -0.00006   0.00000  -0.00026  -0.00026   2.09465
   A13        2.09491  -0.00012   0.00000  -0.00042  -0.00043   2.09448
   A14        2.09433   0.00012   0.00000   0.00054   0.00054   2.09487
   A15        2.09395   0.00001   0.00000  -0.00012  -0.00012   2.09383
   A16        2.09491  -0.00012   0.00000  -0.00042  -0.00043   2.09448
   A17        2.09433   0.00012   0.00000   0.00054   0.00054   2.09487
   A18        2.09395   0.00001   0.00000  -0.00012  -0.00012   2.09383
    D1        0.00000   0.00000   0.00000   0.00000   0.00000   0.00000
    D2        3.14159   0.00000   0.00000   0.00000   0.00000   3.14159
    D3        3.14159   0.00000   0.00000   0.00000   0.00000   3.14159
    D4        0.00000   0.00000   0.00000   0.00000   0.00000   0.00000
    D5        0.00000   0.00000   0.00000   0.00000   0.00000   0.00000
    D6        3.14159   0.00000   0.00000   0.00000   0.00000   3.14159
    D7        3.14159   0.00000   0.00000   0.00000   0.00000   3.14159
    D8        0.00000   0.00000   0.00000   0.00000   0.00000   0.00000
    D9        0.00000   0.00000   0.00000   0.00000   0.00000   0.00000
   D10        3.14159   0.00000   0.00000   0.00000   0.00000   3.14159
   D11        3.14159   0.00000   0.00000   0.00000   0.00000   3.14159
   D12        0.00000   0.00000   0.00000   0.00000   0.00000   0.00000
   D13        0.00000   0.00000   0.00000   0.00000   0.00000   0.00000
   D14        3.14159   0.00000   0.00000   0.00000   0.00000   3.14159
   D15        3.14159   0.00000   0.00000   0.00000   0.00000   3.14159
   D16        0.00000   0.00000   0.00000   0.00000   0.00000   0.00000
   D17        0.00000   0.00000   0.00000   0.00000   0.00000   0.00000
   D18        3.14159   0.00000   0.00000   0.00000   0.00000   3.14159
   D19        3.14159   0.00000   0.00000   0.00000   0.00000   3.14159
   D20        0.00000   0.00000   0.00000   0.00000   0.00000   0.00000
   D21        0.00000   0.00000   0.00000   0.00000   0.00000   0.00000
   D22        3.14159   0.00000   0.00000   0.00000   0.00000   3.14159
   D23        3.14159   0.00000   0.00000   0.00000   0.00000   3.14159
   D24        0.00000   0.00000   0.00000   0.00000   0.00000   0.00000
         Item               Value     Threshold  Converged?
 Maximum Force            0.008317     0.000015     NO 
 RMS     Force            0.002714     0.000010     NO 
 Maximum Displacement     0.017987     0.000060     NO 
 RMS     Displacement     0.007389     0.000040     NO 
 Predicted change in Energy=-4.383804D-04
 GradGradGradGradGradGradGradGradGradGradGradGradGradGradGradGradGradGrad

                          Input orientation:                          
 ---------------------------------------------------------------------
 Center     Atomic      Atomic             Coordinates (Angstroms)
 Number     Number       Type             X           Y           Z
 ---------------------------------------------------------------------
      1          6           0        0.995397    0.991795    0.000000
      2          6           0       -0.394397    0.991795    0.000000
      3          6           0        1.690481   -0.211927    0.000000
      4          1           0        1.537196    1.931031    0.000000
      5          6           0       -1.089481   -0.211927    0.000000
      6          1           0       -0.936196    1.931031    0.000000
      7          6           0       -0.394512   -1.415405    0.000000
      8          1           0       -2.173813   -0.211750    0.000000
      9          6           0        0.995512   -1.415405    0.000000
     10          1           0       -0.936136   -2.354744    0.000000
     11          1           0        1.537136   -2.354744    0.000000
     12          1           0        2.774813   -0.211750    0.000000
 ---------------------------------------------------------------------
                    Distance matrix (angstroms):
                    1          2          3          4          5
     1  C    0.000000
     2  C    1.389794   0.000000
     3  C    1.389996   2.407419   0.000000
     4  H    1.084302   2.147840   2.148434   0.000000
     5  C    2.407419   1.389996   2.779963   3.389942   0.000000
     6  H    2.147840   1.084302   3.389942   2.473392   2.148434
     7  C    2.779651   2.407200   2.407396   3.863953   1.389727
     8  H    3.390046   2.148218   3.864295   4.285219   1.084332
     9  C    2.407200   2.779651   1.389727   3.389994   2.407396
    10  H    3.863953   3.390103   3.389805   4.948256   2.148296
    11  H    3.390103   3.863953   2.148296   4.285775   3.389805
    12  H    2.148218   3.390046   1.084332   2.474511   3.864295
                    6          7          8          9         10
     6  H    0.000000
     7  C    3.389994   0.000000
     8  H    2.474511   2.148185   0.000000
     9  C    3.863953   1.390025   3.390193   0.000000
    10  H    4.285775   1.084303   2.474726   2.147934   0.000000
    11  H    4.948256   2.147934   4.285273   1.084303   2.473272
    12  H    4.285219   3.390193   4.948627   2.148185   4.285273
                   11         12
    11  H    0.000000
    12  H    2.474726   0.000000
 Stoichiometry    C6H6
 Framework group  C2V[SGV(C6H6)]
 Deg. of freedom    11
 Full point group                 C2V     NOp   4
 Largest Abelian subgroup         C2V     NOp   4
 Largest concise Abelian subgroup C2      NOp   2
                         Standard orientation:                         
 ---------------------------------------------------------------------
 Center     Atomic      Atomic             Coordinates (Angstroms)
 Number     Number       Type             X           Y           Z
 ---------------------------------------------------------------------
      1          6           0        0.000000    0.694897    1.203637
      2          6           0        0.000000   -0.694897    1.203637
      3          6           0        0.000000    1.389981   -0.000085
      4          1           0        0.000000    1.236696    2.142874
      5          6           0        0.000000   -1.389981   -0.000085
      6          1           0        0.000000   -1.236696    2.142874
      7          6           0        0.000000   -0.695012   -1.203563
      8          1           0        0.000000   -2.474313    0.000093
      9          6           0        0.000000    0.695012   -1.203563
     10          1           0        0.000000   -1.236636   -2.142901
     11          1           0        0.000000    1.236636   -2.142901
     12          1           0        0.000000    2.474313    0.000093
 ---------------------------------------------------------------------
 Rotational constants (GHZ):      5.7398827      5.7392364      2.8697797
 Standard basis: 6-311++G(d,p) (5D, 7F)
 There are    69 symmetry adapted cartesian basis functions of A1  symmetry.
 There are    21 symmetry adapted cartesian basis functions of A2  symmetry.
 There are    21 symmetry adapted cartesian basis functions of B1  symmetry.
 There are    69 symmetry adapted cartesian basis functions of B2  symmetry.
 There are    66 symmetry adapted basis functions of A1  symmetry.
 There are    21 symmetry adapted basis functions of A2  symmetry.
 There are    21 symmetry adapted basis functions of B1  symmetry.
 There are    66 symmetry adapted basis functions of B2  symmetry.
   174 basis functions,   270 primitive gaussians,   180 cartesian basis functions
    21 alpha electrons       21 beta electrons
       nuclear repulsion energy       204.0995240905 Hartrees.
 NAtoms=   12 NActive=   12 NUniq=    6 SFac= 4.00D+00 NAtFMM=   60 NAOKFM=F Big=F
 Integral buffers will be    131072 words long.
 Raffenetti 2 integral format.
 Two-electron integral symmetry is turned on.
 Nuclear repulsion after empirical dispersion term =      204.0953383660 Hartrees.
 One-electron integrals computed using PRISM.
 NBasis=   174 RedAO= T EigKep=  1.03D-06  NBF=    66    21    21    66
 NBsUse=   174 1.00D-06 EigRej= -1.00D+00 NBFU=    66    21    21    66
 Initial guess from the checkpoint file:  "lig.chk"
 B after Tr=     0.000000    0.000000    0.000000
         Rot=    1.000000    0.000000    0.000000    0.000000 Ang=   0.00 deg.
 Initial guess orbital symmetries:
       Occupied  (A1) (A1) (B2) (B2) (A1) (B2) (A1) (B2) (A1) (A1)
                 (B2) (A1) (B2) (A1) (B2) (A1) (B1) (A1) (B2) (B1)
                 (A2)
       Virtual   (A1) (A1) (A1) (A1) (A1) (A1) (A1) (A1) (A1) (A1)
                 (A1) (A1) (A1) (A1) (A1) (A1) (A1) (A1) (A1) (A1)
                 (A1) (A1) (A1) (A1) (A1) (A1) (A1) (A1) (A1) (A1)
                 (A1) (A1) (A1) (A1) (A1) (A1) (A1) (A1) (A1) (A1)
                 (A1) (A1) (A1) (A1) (A1) (A1) (A1) (A1) (A1) (A1)
                 (A1) (A1) (A1) (A1) (A1) (A1) (A2) (A2) (A2) (A2)
                 (A2) (A2) (A2) (A2) (A2) (A2) (A2) (A2) (A2) (A2)
                 (A2) (A2) (A2) (A2) (A2) (A2) (B1) (B1) (B1) (B1)
                 (B1) (B1) (B1) (B1) (B1) (B1) (B1) (B1) (B1) (B1)
                 (B1) (B1) (B1) (B1) (B1) (B2) (B2) (B2) (B2) (B2)
                 (B2) (B2) (B2) (B2) (B2) (B2) (B2) (B2) (B2) (B2)
                 (B2) (B2) (B2) (B2) (B2) (B2) (B2) (B2) (B2) (B2)
                 (B2) (B2) (B2) (B2) (B2) (B2) (B2) (B2) (B2) (B2)
                 (B2) (B2) (B2) (B2) (B2) (B2) (B2) (B2) (B2) (B2)
                 (B2) (B2) (B2) (B2) (B2) (B2) (B2) (B2) (B2) (B2)
                 (B2) (B2) (B2)
 Keep R1 ints in memory in symmetry-blocked form, NReq=294359170.
 Gradient too large for Newton-Raphson -- use scaled steepest descent instead.
 Gradient too large for Newton-Raphson -- use scaled steepest descent instead.
     Accept linear search using points  1 and  2.
 LinEq1:  Iter=  0 NonCon=     1 RMS=5.07D-05 Max=8.38D-04 NDo=     1
 AX will form     1 AO Fock derivatives at one time.
 LinEq1:  Iter=  1 NonCon=     1 RMS=4.08D-06 Max=7.27D-05 NDo=     1
 LinEq1:  Iter=  2 NonCon=     1 RMS=1.07D-06 Max=2.13D-05 NDo=     1
 LinEq1:  Iter=  3 NonCon=     1 RMS=4.58D-07 Max=1.23D-05 NDo=     1
 LinEq1:  Iter=  4 NonCon=     1 RMS=1.67D-07 Max=6.73D-06 NDo=     1
 LinEq1:  Iter=  5 NonCon=     1 RMS=1.03D-07 Max=4.04D-06 NDo=     1
 LinEq1:  Iter=  6 NonCon=     1 RMS=3.84D-08 Max=8.32D-07 NDo=     1
 LinEq1:  Iter=  7 NonCon=     0 RMS=6.13D-09 Max=7.48D-08 NDo=     1
 Linear equations converged to 8.016D-09 8.016D-08 after     7 iterations.
     Minimum is close to point  2 DX=  4.25D-06 DF= -2.84D-14 DXR=  4.25D-06 DFR=  1.19D-09 which will be used.
 LinEq1:  Iter=  0 NonCon=     1 RMS=1.53D-08 Max=2.37D-07 NDo=     1
 LinEq1:  Iter=  1 NonCon=     1 RMS=6.00D-09 Max=9.23D-08 NDo=     1
 LinEq1:  Iter=  2 NonCon=     1 RMS=1.15D-09 Max=2.27D-08 NDo=     1
 LinEq1:  Iter=  3 NonCon=     1 RMS=4.29D-10 Max=1.64D-08 NDo=     1
 LinEq1:  Iter=  4 NonCon=     1 RMS=2.57D-10 Max=1.04D-08 NDo=     1
 LinEq1:  Iter=  5 NonCon=     1 RMS=9.55D-11 Max=2.62D-09 NDo=     1
 LinEq1:  Iter=  6 NonCon=     1 RMS=2.75D-11 Max=5.49D-10 NDo=     1
 LinEq1:  Iter=  7 NonCon=     0 RMS=1.48D-11 Max=2.34D-10 NDo=     1
 Linear equations converged to 2.636D-11 2.636D-10 after     7 iterations.
 SCF Done:  E(RwB97XD) =  -232.220958351     a.u. after    5 cycles
            Convg  =    0.9570D-09                    24 Fock formations.
              S**2 =  0.0000                  -V/T =  2.0044
 Calling FoFJK, ICntrl=      2127 FMM=F ISym2X=1 I1Cent= 0 IOpClX= 0 NMat=1 NMatS=1 NMatT=0.
 ***** Axes restored to original set *****
 -------------------------------------------------------------------
 Center     Atomic                   Forces (Hartrees/Bohr)
 Number     Number              X              Y              Z
 -------------------------------------------------------------------
      1        6           0.000563913    0.000587120   -0.000000274
      2        6          -0.000563919    0.000587115    0.000000288
      3        6           0.000657890    0.000132978    0.000000320
      4        1           0.000041358    0.000101121   -0.000000007
      5        6          -0.000657885    0.000132983   -0.000000340
      6        1          -0.000041358    0.000101121    0.000000009
      7        6          -0.000395773   -0.000710730    0.000000378
      8        1          -0.000124056   -0.000014084   -0.000000013
      9        6           0.000395774   -0.000710732   -0.000000375
     10        1          -0.000049624   -0.000096404    0.000000017
     11        1           0.000049624   -0.000096404   -0.000000015
     12        1           0.000124056   -0.000014084    0.000000013
 -------------------------------------------------------------------
 Cartesian Forces:  Max     0.000710732 RMS     0.000317478

 GradGradGradGradGradGradGradGradGradGradGradGradGradGradGradGradGradGrad
 Berny optimization.
 Using GEDIIS/GDIIS optimizer.
 FormGI is forming the generalized inverse of G from B-inverse, IUseBI=4.
 Internal  Forces:  Max     0.000968115 RMS     0.000292816
 Search for a local minimum.
 Step number   2 out of a maximum of   64
 All quantities printed in internal units (Hartrees-Bohrs-Radians)
 Mixed Optimization -- En-DIIS/RFO-DIIS
 Update second derivatives using D2CorX and points    1    2
 DE= -3.97D-04 DEPred=-4.38D-04 R= 9.06D-01
 TightC=F SS=  1.41D+00  RLast= 4.39D-02 DXNew= 5.0454D-01 1.3181D-01
 Trust test= 9.06D-01 RLast= 4.39D-02 DXMaxT set to 3.00D-01
 ITU=  1  0
 Use linear search instead of GDIIS.
     Eigenvalues ---    0.02096   0.02097   0.02098   0.02099   0.02100
     Eigenvalues ---    0.02100   0.02103   0.02104   0.02104   0.15998
     Eigenvalues ---    0.16000   0.16000   0.16000   0.16000   0.16000
     Eigenvalues ---    0.21995   0.22000   0.22000   0.35397   0.35654
     Eigenvalues ---    0.35682   0.35754   0.35756   0.35758   0.41512
     Eigenvalues ---    0.41525   0.45692   0.45756   0.45804   0.51010
 RFO step:  Lambda=-1.09615591D-06 EMin= 2.09600115D-02
 Quartic linear search produced a step of -0.08947.
 Iteration  1 RMS(Cart)=  0.00086124 RMS(Int)=  0.00000004
 Iteration  2 RMS(Cart)=  0.00000004 RMS(Int)=  0.00000003
 ClnCor:  largest displacement from symmetrization is 3.05D-06 for atom    10.
 Variable       Old X    -DE/DX   Delta X   Delta X   Delta X     New X
                                 (Linear)    (Quad)   (Total)
    R1        2.62633   0.00097   0.00156   0.00031   0.00186   2.62819
    R2        2.62671   0.00078   0.00163  -0.00014   0.00148   2.62820
    R3        2.04903   0.00011  -0.00040   0.00069   0.00029   2.04933
    R4        2.62671   0.00078   0.00163  -0.00014   0.00148   2.62820
    R5        2.04903   0.00011  -0.00040   0.00069   0.00029   2.04933
    R6        2.62620   0.00091   0.00153   0.00022   0.00175   2.62795
    R7        2.04909   0.00012  -0.00039   0.00073   0.00033   2.04942
    R8        2.62620   0.00091   0.00153   0.00022   0.00175   2.62795
    R9        2.04909   0.00012  -0.00039   0.00073   0.00033   2.04942
   R10        2.62677   0.00086   0.00152   0.00014   0.00166   2.62843
   R11        2.04904   0.00011  -0.00025   0.00054   0.00029   2.04932
   R12        2.04904   0.00011  -0.00025   0.00054   0.00029   2.04932
    A1        2.09447  -0.00002   0.00001  -0.00008  -0.00007   2.09440
    A2        2.09402  -0.00001   0.00004  -0.00009  -0.00005   2.09397
    A3        2.09470   0.00002  -0.00004   0.00017   0.00012   2.09482
    A4        2.09447  -0.00002   0.00001  -0.00008  -0.00007   2.09440
    A5        2.09402  -0.00001   0.00004  -0.00009  -0.00005   2.09397
    A6        2.09470   0.00002  -0.00004   0.00017   0.00012   2.09482
    A7        2.09424   0.00004  -0.00005   0.00020   0.00015   2.09439
    A8        2.09430   0.00000   0.00002  -0.00002   0.00000   2.09431
    A9        2.09465  -0.00003   0.00002  -0.00018  -0.00016   2.09449
   A10        2.09424   0.00004  -0.00005   0.00020   0.00015   2.09439
   A11        2.09430   0.00000   0.00002  -0.00002   0.00000   2.09431
   A12        2.09465  -0.00003   0.00002  -0.00018  -0.00016   2.09449
   A13        2.09448  -0.00002   0.00004  -0.00012  -0.00008   2.09440
   A14        2.09487   0.00002  -0.00005   0.00012   0.00007   2.09494
   A15        2.09383   0.00001   0.00001   0.00000   0.00001   2.09384
   A16        2.09448  -0.00002   0.00004  -0.00012  -0.00008   2.09440
   A17        2.09487   0.00002  -0.00005   0.00012   0.00007   2.09494
   A18        2.09383   0.00001   0.00001   0.00000   0.00001   2.09384
    D1        0.00000   0.00000   0.00000   0.00000   0.00000   0.00000
    D2        3.14159   0.00000   0.00000   0.00000   0.00000   3.14159
    D3        3.14159   0.00000   0.00000   0.00000   0.00000   3.14159
    D4        0.00000   0.00000   0.00000   0.00000   0.00000   0.00000
    D5        0.00000   0.00000   0.00000   0.00000   0.00000   0.00000
    D6        3.14159   0.00000   0.00000   0.00000   0.00000   3.14159
    D7        3.14159   0.00000   0.00000   0.00000   0.00000   3.14159
    D8        0.00000   0.00000   0.00000   0.00000   0.00000   0.00000
    D9        0.00000   0.00000   0.00000   0.00000   0.00000   0.00000
   D10        3.14159   0.00000   0.00000   0.00000   0.00000   3.14159
   D11        3.14159   0.00000   0.00000   0.00000   0.00000   3.14159
   D12        0.00000   0.00000   0.00000   0.00000   0.00000   0.00000
   D13        0.00000   0.00000   0.00000   0.00000   0.00000   0.00000
   D14        3.14159   0.00000   0.00000   0.00000   0.00000   3.14159
   D15        3.14159   0.00000   0.00000   0.00000   0.00000   3.14159
   D16        0.00000   0.00000   0.00000   0.00000   0.00000   0.00000
   D17        0.00000   0.00000   0.00000   0.00000   0.00000   0.00000
   D18        3.14159   0.00000   0.00000   0.00000   0.00000   3.14159
   D19        3.14159   0.00000   0.00000   0.00000   0.00000   3.14159
   D20        0.00000   0.00000   0.00000   0.00000   0.00000   0.00000
   D21        0.00000   0.00000   0.00000   0.00001   0.00000   0.00000
   D22        3.14159   0.00000   0.00000   0.00000   0.00000   3.14159
   D23        3.14159   0.00000   0.00000   0.00000   0.00000   3.14159
   D24        0.00000   0.00000   0.00000   0.00000   0.00000   0.00000
         Item               Value     Threshold  Converged?
 Maximum Force            0.000968     0.000015     NO 
 RMS     Force            0.000293     0.000010     NO 
 Maximum Displacement     0.001847     0.000060     NO 
 RMS     Displacement     0.000861     0.000040     NO 
 Predicted change in Energy=-4.563121D-06
 GradGradGradGradGradGradGradGradGradGradGradGradGradGradGradGradGradGrad

                          Input orientation:                          
 ---------------------------------------------------------------------
 Center     Atomic      Atomic             Coordinates (Angstroms)
 Number     Number       Type             X           Y           Z
 ---------------------------------------------------------------------
      1          6           0        0.995890    0.992575    0.000000
      2          6           0       -0.394890    0.992575    0.000000
      3          6           0        1.691282   -0.211877    0.000000
      4          1           0        1.537716    1.931975    0.000000
      5          6           0       -1.090282   -0.211877    0.000000
      6          1           0       -0.936716    1.931975    0.000000
      7          6           0       -0.394952   -1.416213    0.000000
      8          1           0       -2.174791   -0.211781    0.000000
      9          6           0        0.995952   -1.416213    0.000000
     10          1           0       -0.936661   -2.355679    0.000000
     11          1           0        1.537661   -2.355679    0.000000
     12          1           0        2.775791   -0.211781    0.000000
 ---------------------------------------------------------------------
                    Distance matrix (angstroms):
                    1          2          3          4          5
     1  C    0.000000
     2  C    1.390779   0.000000
     3  C    1.390782   2.408903   0.000000
     4  H    1.084458   2.148822   2.149345   0.000000
     5  C    2.408903   1.390782   2.781564   3.391530   0.000000
     6  H    2.148822   1.084458   3.391530   2.474432   2.149345
     7  C    2.781492   2.408788   2.408900   3.865950   1.390651
     8  H    3.391708   2.149074   3.866072   4.287003   1.084509
     9  C    2.408788   2.781492   1.390651   3.391736   2.408900
    10  H    3.865948   3.391801   3.391455   4.950405   2.149299
    11  H    3.391801   3.865948   2.149299   4.287654   3.391455
    12  H    2.149074   3.391708   1.084509   2.475584   3.866072
                    6          7          8          9         10
     6  H    0.000000
     7  C    3.391736   0.000000
     8  H    2.475584   2.149066   0.000000
     9  C    3.865950   1.390904   3.391794   0.000000
    10  H    4.287654   1.084455   2.475735   2.148857   0.000000
    11  H    4.950405   2.148857   4.287026   1.084455   2.474321
    12  H    4.287003   3.391794   4.950581   2.149066   4.287026
                   11         12
    11  H    0.000000
    12  H    2.475735   0.000000
 Stoichiometry    C6H6
 Framework group  C2V[SGV(C6H6)]
 Deg. of freedom    11
 Full point group                 C2V     NOp   4
 Largest Abelian subgroup         C2V     NOp   4
 Largest concise Abelian subgroup C2      NOp   2
                         Standard orientation:                         
 ---------------------------------------------------------------------
 Center     Atomic      Atomic             Coordinates (Angstroms)
 Number     Number       Type             X           Y           Z
 ---------------------------------------------------------------------
      1          6           0        0.000000    0.695390    1.204412
      2          6           0        0.000000   -0.695390    1.204412
      3          6           0        0.000000    1.390782   -0.000040
      4          1           0        0.000000    1.237216    2.143812
      5          6           0        0.000000   -1.390782   -0.000040
      6          1           0        0.000000   -1.237216    2.143812
      7          6           0        0.000000   -0.695452   -1.204376
      8          1           0        0.000000   -2.475291    0.000056
      9          6           0        0.000000    0.695452   -1.204376
     10          1           0        0.000000   -1.237161   -2.143842
     11          1           0        0.000000    1.237161   -2.143842
     12          1           0        0.000000    2.475291    0.000056
 ---------------------------------------------------------------------
 Rotational constants (GHZ):      5.7328488      5.7327597      2.8664021
 Standard basis: 6-311++G(d,p) (5D, 7F)
 There are    69 symmetry adapted cartesian basis functions of A1  symmetry.
 There are    21 symmetry adapted cartesian basis functions of A2  symmetry.
 There are    21 symmetry adapted cartesian basis functions of B1  symmetry.
 There are    69 symmetry adapted cartesian basis functions of B2  symmetry.
 There are    66 symmetry adapted basis functions of A1  symmetry.
 There are    21 symmetry adapted basis functions of A2  symmetry.
 There are    21 symmetry adapted basis functions of B1  symmetry.
 There are    66 symmetry adapted basis functions of B2  symmetry.
   174 basis functions,   270 primitive gaussians,   180 cartesian basis functions
    21 alpha electrons       21 beta electrons
       nuclear repulsion energy       203.9851707748 Hartrees.
 NAtoms=   12 NActive=   12 NUniq=    6 SFac= 4.00D+00 NAtFMM=   60 NAOKFM=F Big=F
 Integral buffers will be    131072 words long.
 Raffenetti 2 integral format.
 Two-electron integral symmetry is turned on.
 Nuclear repulsion after empirical dispersion term =      203.9809856379 Hartrees.
 One-electron integrals computed using PRISM.
 NBasis=   174 RedAO= T EigKep=  1.04D-06  NBF=    66    21    21    66
 NBsUse=   174 1.00D-06 EigRej= -1.00D+00 NBFU=    66    21    21    66
 Initial guess from the checkpoint file:  "lig.chk"
 B after Tr=     0.000000    0.000000    0.000000
         Rot=    1.000000    0.000000    0.000000    0.000000 Ang=   0.00 deg.
 Initial guess orbital symmetries:
       Occupied  (A1) (B2) (A1) (A1) (B2) (B2) (A1) (B2) (A1) (A1)
                 (B2) (A1) (B2) (A1) (B2) (A1) (B1) (B2) (A1) (A2)
                 (B1)
       Virtual   (A1) (A1) (A1) (A1) (A1) (A1) (A1) (A1) (A1) (A1)
                 (A1) (A1) (A1) (A1) (A1) (A1) (A1) (A1) (A1) (A1)
                 (A1) (A1) (A1) (A1) (A1) (A1) (A1) (A1) (A1) (A1)
                 (A1) (A1) (A1) (A1) (A1) (A1) (A1) (A1) (A1) (A1)
                 (A1) (A1) (A1) (A1) (A1) (A1) (A1) (A1) (A1) (A1)
                 (A1) (A1) (A1) (A1) (A1) (A1) (A2) (A2) (A2) (A2)
                 (A2) (A2) (A2) (A2) (A2) (A2) (A2) (A2) (A2) (A2)
                 (A2) (A2) (A2) (A2) (A2) (A2) (B1) (B1) (B1) (B1)
                 (B1) (B1) (B1) (B1) (B1) (B1) (B1) (B1) (B1) (B1)
                 (B1) (B1) (B1) (B1) (B1) (B2) (B2) (B2) (B2) (B2)
                 (B2) (B2) (B2) (B2) (B2) (B2) (B2) (B2) (B2) (B2)
                 (B2) (B2) (B2) (B2) (B2) (B2) (B2) (B2) (B2) (B2)
                 (B2) (B2) (B2) (B2) (B2) (B2) (B2) (B2) (B2) (B2)
                 (B2) (B2) (B2) (B2) (B2) (B2) (B2) (B2) (B2) (B2)
                 (B2) (B2) (B2) (B2) (B2) (B2) (B2) (B2) (B2) (B2)
                 (B2) (B2) (B2)
 Keep R1 ints in memory in symmetry-blocked form, NReq=294359170.
 LinEq1:  Iter=  0 NonCon=     1 RMS=1.17D-05 Max=1.92D-04 NDo=     1
 AX will form     1 AO Fock derivatives at one time.
 LinEq1:  Iter=  1 NonCon=     1 RMS=5.43D-06 Max=8.97D-05 NDo=     1
 LinEq1:  Iter=  2 NonCon=     1 RMS=1.06D-06 Max=2.01D-05 NDo=     1
 LinEq1:  Iter=  3 NonCon=     1 RMS=3.13D-07 Max=9.82D-06 NDo=     1
 LinEq1:  Iter=  4 NonCon=     1 RMS=1.21D-07 Max=4.30D-06 NDo=     1
 LinEq1:  Iter=  5 NonCon=     1 RMS=7.13D-08 Max=2.18D-06 NDo=     1
 LinEq1:  Iter=  6 NonCon=     1 RMS=1.89D-08 Max=3.66D-07 NDo=     1
 LinEq1:  Iter=  7 NonCon=     1 RMS=1.06D-08 Max=1.85D-07 NDo=     1
 LinEq1:  Iter=  8 NonCon=     0 RMS=1.81D-09 Max=3.13D-08 NDo=     1
 Linear equations converged to 8.016D-09 8.016D-08 after     8 iterations.
     Accept linear search using points  1 and  2.
     Minimum is close to point  2 DX= -3.68D-05 DF=  0.00D+00 DXR=  3.68D-05 DFR=  0.00D+00 which will be used.
 SCF Done:  E(RwB97XD) =  -232.220962822     a.u. after    2 cycles
            Convg  =    0.1882D-06                    10 Fock formations.
              S**2 =  0.0000                  -V/T =  2.0045
 Calling FoFJK, ICntrl=      2127 FMM=F ISym2X=1 I1Cent= 0 IOpClX= 0 NMat=1 NMatS=1 NMatT=0.
 ***** Axes restored to original set *****
 -------------------------------------------------------------------
 Center     Atomic                   Forces (Hartrees/Bohr)
 Number     Number              X              Y              Z
 -------------------------------------------------------------------
      1        6           0.000078307   -0.000024162    0.000000009
      2        6          -0.000078308   -0.000024159   -0.000000005
      3        6          -0.000013602    0.000061631    0.000000008
      4        1          -0.000012643   -0.000009586    0.000000003
      5        6           0.000013603    0.000061629   -0.000000005
      6        1           0.000012643   -0.000009586   -0.000000001
      7        6           0.000014873   -0.000032657    0.000000030
      8        1           0.000007531   -0.000007459   -0.000000001
      9        6          -0.000014872   -0.000032659   -0.000000037
     10        1           0.000004379    0.000012234    0.000000002
     11        1          -0.000004379    0.000012234   -0.000000003
     12        1          -0.000007531   -0.000007459    0.000000000
 -------------------------------------------------------------------
 Cartesian Forces:  Max     0.000078308 RMS     0.000026373

 GradGradGradGradGradGradGradGradGradGradGradGradGradGradGradGradGradGrad
 Berny optimization.
 Using GEDIIS/GDIIS optimizer.
 FormGI is forming the generalized inverse of G from B-inverse, IUseBI=4.
 Internal  Forces:  Max     0.000041467 RMS     0.000011848
 Search for a local minimum.
 Step number   3 out of a maximum of   64
 All quantities printed in internal units (Hartrees-Bohrs-Radians)
 Mixed Optimization -- En-DIIS/RFO-DIIS
 Swapping is turned off.
 Update second derivatives using D2CorX and points    1    2    3
 DE= -4.47D-06 DEPred=-4.56D-06 R= 9.80D-01
 TightC=F SS=  1.41D+00  RLast= 4.18D-03 DXNew= 5.0454D-01 1.2539D-02
 Trust test= 9.80D-01 RLast= 4.18D-03 DXMaxT set to 3.00D-01
 ITU=  1  1  0
     Eigenvalues ---    0.02096   0.02097   0.02098   0.02099   0.02100
     Eigenvalues ---    0.02100   0.02103   0.02104   0.02104   0.15977
     Eigenvalues ---    0.16000   0.16000   0.16000   0.16000   0.16001
     Eigenvalues ---    0.21968   0.22000   0.22000   0.35483   0.35654
     Eigenvalues ---    0.35680   0.35754   0.35755   0.35758   0.41516
     Eigenvalues ---    0.41528   0.45179   0.45756   0.45799   0.52631
 En-DIIS/RFO-DIIS IScMMF=        0 using points:     3    2
 RFO step:  Lambda=-1.18756889D-08.
 DidBck=F Rises=F RFO-DIIS coefs:    0.99804    0.00196
 Iteration  1 RMS(Cart)=  0.00002188 RMS(Int)=  0.00000000
 Iteration  2 RMS(Cart)=  0.00000000 RMS(Int)=  0.00000000
 ClnCor:  largest displacement from symmetrization is 5.81D-07 for atom    10.
 Variable       Old X    -DE/DX   Delta X   Delta X   Delta X     New X
                                 (Linear)    (Quad)   (Total)
    R1        2.62819   0.00004   0.00000   0.00010   0.00009   2.62829
    R2        2.62820  -0.00004   0.00000  -0.00008  -0.00009   2.62811
    R3        2.04933  -0.00001   0.00000  -0.00004  -0.00004   2.04929
    R4        2.62820  -0.00004   0.00000  -0.00008  -0.00009   2.62811
    R5        2.04933  -0.00001   0.00000  -0.00004  -0.00004   2.04929
    R6        2.62795   0.00002   0.00000   0.00005   0.00005   2.62800
    R7        2.04942  -0.00001   0.00000  -0.00002  -0.00002   2.04940
    R8        2.62795   0.00002   0.00000   0.00005   0.00005   2.62800
    R9        2.04942  -0.00001   0.00000  -0.00002  -0.00002   2.04940
   R10        2.62843  -0.00002   0.00000  -0.00003  -0.00003   2.62840
   R11        2.04932  -0.00001   0.00000  -0.00003  -0.00004   2.04929
   R12        2.04932  -0.00001   0.00000  -0.00003  -0.00004   2.04929
    A1        2.09440   0.00000   0.00000  -0.00001  -0.00001   2.09438
    A2        2.09397  -0.00001   0.00000  -0.00003  -0.00003   2.09393
    A3        2.09482   0.00001   0.00000   0.00005   0.00005   2.09487
    A4        2.09440   0.00000   0.00000  -0.00001  -0.00001   2.09438
    A5        2.09397  -0.00001   0.00000  -0.00003  -0.00003   2.09393
    A6        2.09482   0.00001   0.00000   0.00005   0.00005   2.09487
    A7        2.09439   0.00001   0.00000   0.00003   0.00003   2.09442
    A8        2.09431   0.00000   0.00000   0.00003   0.00003   2.09434
    A9        2.09449  -0.00001   0.00000  -0.00006  -0.00006   2.09443
   A10        2.09439   0.00001   0.00000   0.00003   0.00003   2.09442
   A11        2.09431   0.00000   0.00000   0.00003   0.00003   2.09434
   A12        2.09449  -0.00001   0.00000  -0.00006  -0.00006   2.09443
   A13        2.09440   0.00000   0.00000  -0.00001  -0.00001   2.09438
   A14        2.09494   0.00000   0.00000  -0.00001  -0.00001   2.09494
   A15        2.09384   0.00000   0.00000   0.00002   0.00002   2.09386
   A16        2.09440   0.00000   0.00000  -0.00001  -0.00001   2.09438
   A17        2.09494   0.00000   0.00000  -0.00001  -0.00001   2.09494
   A18        2.09384   0.00000   0.00000   0.00002   0.00002   2.09386
    D1        0.00000   0.00000   0.00000   0.00000   0.00000   0.00000
    D2        3.14159   0.00000   0.00000   0.00000   0.00000   3.14159
    D3        3.14159   0.00000   0.00000   0.00000   0.00000   3.14159
    D4        0.00000   0.00000   0.00000   0.00000   0.00000   0.00000
    D5        0.00000   0.00000   0.00000   0.00000   0.00000   0.00000
    D6        3.14159   0.00000   0.00000   0.00000   0.00000   3.14159
    D7        3.14159   0.00000   0.00000   0.00000   0.00000   3.14159
    D8        0.00000   0.00000   0.00000   0.00000   0.00000   0.00000
    D9        0.00000   0.00000   0.00000   0.00000   0.00000   0.00000
   D10        3.14159   0.00000   0.00000   0.00000   0.00000   3.14159
   D11        3.14159   0.00000   0.00000   0.00000   0.00000   3.14159
   D12        0.00000   0.00000   0.00000   0.00000   0.00000   0.00000
   D13        0.00000   0.00000   0.00000   0.00000   0.00000   0.00000
   D14        3.14159   0.00000   0.00000   0.00000   0.00000   3.14159
   D15        3.14159   0.00000   0.00000   0.00000   0.00000   3.14159
   D16        0.00000   0.00000   0.00000   0.00000   0.00000   0.00000
   D17        0.00000   0.00000   0.00000   0.00000   0.00000   0.00000
   D18        3.14159   0.00000   0.00000   0.00000   0.00000   3.14159
   D19        3.14159   0.00000   0.00000   0.00000   0.00000   3.14159
   D20        0.00000   0.00000   0.00000   0.00000   0.00000   0.00000
   D21        0.00000   0.00000   0.00000   0.00000   0.00000   0.00000
   D22        3.14159   0.00000   0.00000   0.00000   0.00000   3.14159
   D23        3.14159   0.00000   0.00000   0.00000   0.00000   3.14159
   D24        0.00000   0.00000   0.00000   0.00000   0.00000   0.00000
         Item               Value     Threshold  Converged?
 Maximum Force            0.000041     0.000015     NO 
 RMS     Force            0.000012     0.000010     NO 
 Maximum Displacement     0.000049     0.000060     YES
 RMS     Displacement     0.000022     0.000040     YES
 Predicted change in Energy=-9.544722D-09
 GradGradGradGradGradGradGradGradGradGradGradGradGradGradGradGradGradGrad

                          Input orientation:                          
 ---------------------------------------------------------------------
 Center     Atomic      Atomic             Coordinates (Angstroms)
 Number     Number       Type             X           Y           Z
 ---------------------------------------------------------------------
      1          6           0        0.995914    0.992568    0.000000
      2          6           0       -0.394914    0.992568    0.000000
      3          6           0        1.691268   -0.211852    0.000000
      4          1           0        1.537699    1.931968    0.000000
      5          6           0       -1.090268   -0.211852    0.000000
      6          1           0       -0.936699    1.931968    0.000000
      7          6           0       -0.394944   -1.416220    0.000000
      8          1           0       -2.174767   -0.211807    0.000000
      9          6           0        0.995944   -1.416220    0.000000
     10          1           0       -0.936664   -2.355657    0.000000
     11          1           0        1.537664   -2.355657    0.000000
     12          1           0        2.775767   -0.211807    0.000000
 ---------------------------------------------------------------------
                    Distance matrix (angstroms):
                    1          2          3          4          5
     1  C    0.000000
     2  C    1.390829   0.000000
     3  C    1.390735   2.408897   0.000000
     4  H    1.084437   2.148829   2.149314   0.000000
     5  C    2.408897   1.390735   2.781537   3.391486   0.000000
     6  H    2.148829   1.084437   3.391486   2.474398   2.149314
     7  C    2.781501   2.408788   2.408897   3.865938   1.390676
     8  H    3.391716   2.149045   3.866035   4.286977   1.084498
     9  C    2.408788   2.781501   1.390676   3.391735   2.408897
    10  H    3.865938   3.391771   3.391450   4.950374   2.149301
    11  H    3.391771   3.865938   2.149301   4.287626   3.391450
    12  H    2.149045   3.391716   1.084498   2.475598   3.866035
                    6          7          8          9         10
     6  H    0.000000
     7  C    3.391735   0.000000
     8  H    2.475598   2.149042   0.000000
     9  C    3.865938   1.390888   3.391757   0.000000
    10  H    4.287626   1.084437   2.475680   2.148840   0.000000
    11  H    4.950374   2.148840   4.286984   1.084437   2.474328
    12  H    4.286977   3.391757   4.950533   2.149042   4.286984
                   11         12
    11  H    0.000000
    12  H    2.475680   0.000000
 Stoichiometry    C6H6
 Framework group  C2V[SGV(C6H6)]
 Deg. of freedom    11
 Full point group                 C2V     NOp   4
 Largest Abelian subgroup         C2V     NOp   4
 Largest concise Abelian subgroup C2      NOp   2
                         Standard orientation:                         
 ---------------------------------------------------------------------
 Center     Atomic      Atomic             Coordinates (Angstroms)
 Number     Number       Type             X           Y           Z
 ---------------------------------------------------------------------
      1          6           0        0.000000    0.695414    1.204402
      2          6           0        0.000000   -0.695414    1.204402
      3          6           0        0.000000    1.390768   -0.000018
      4          1           0        0.000000    1.237199    2.143803
      5          6           0        0.000000   -1.390768   -0.000018
      6          1           0        0.000000   -1.237199    2.143803
      7          6           0        0.000000   -0.695444   -1.204386
      8          1           0        0.000000   -2.475267    0.000027
      9          6           0        0.000000    0.695444   -1.204386
     10          1           0        0.000000   -1.237164   -2.143823
     11          1           0        0.000000    1.237164   -2.143823
     12          1           0        0.000000    2.475267    0.000027
 ---------------------------------------------------------------------
 Rotational constants (GHZ):      5.7328636      5.7328016      2.8664163
 Standard basis: 6-311++G(d,p) (5D, 7F)
 There are    69 symmetry adapted cartesian basis functions of A1  symmetry.
 There are    21 symmetry adapted cartesian basis functions of A2  symmetry.
 There are    21 symmetry adapted cartesian basis functions of B1  symmetry.
 There are    69 symmetry adapted cartesian basis functions of B2  symmetry.
 There are    66 symmetry adapted basis functions of A1  symmetry.
 There are    21 symmetry adapted basis functions of A2  symmetry.
 There are    21 symmetry adapted basis functions of B1  symmetry.
 There are    66 symmetry adapted basis functions of B2  symmetry.
   174 basis functions,   270 primitive gaussians,   180 cartesian basis functions
    21 alpha electrons       21 beta electrons
       nuclear repulsion energy       203.9858458941 Hartrees.
 NAtoms=   12 NActive=   12 NUniq=    6 SFac= 4.00D+00 NAtFMM=   60 NAOKFM=F Big=F
 Integral buffers will be    131072 words long.
 Raffenetti 2 integral format.
 Two-electron integral symmetry is turned on.
 Nuclear repulsion after empirical dispersion term =      203.9816607313 Hartrees.
 One-electron integrals computed using PRISM.
 NBasis=   174 RedAO= T EigKep=  1.04D-06  NBF=    66    21    21    66
 NBsUse=   174 1.00D-06 EigRej= -1.00D+00 NBFU=    66    21    21    66
 Initial guess from the checkpoint file:  "lig.chk"
 B after Tr=     0.000000    0.000000    0.000000
         Rot=    1.000000    0.000000    0.000000    0.000000 Ang=   0.00 deg.
 Initial guess orbital symmetries:
       Occupied  (A1) (A1) (B2) (B2) (A1) (B2) (A1) (B2) (A1) (A1)
                 (B2) (A1) (B2) (A1) (A1) (B2) (B1) (B2) (A1) (A2)
                 (B1)
       Virtual   (A1) (A1) (A1) (A1) (A1) (A1) (A1) (A1) (A1) (A1)
                 (A1) (A1) (A1) (A1) (A1) (A1) (A1) (A1) (A1) (A1)
                 (A1) (A1) (A1) (A1) (A1) (A1) (A1) (A1) (A1) (A1)
                 (A1) (A1) (A1) (A1) (A1) (A1) (A1) (A1) (A1) (A1)
                 (A1) (A1) (A1) (A1) (A1) (A1) (A1) (A1) (A1) (A1)
                 (A1) (A1) (A1) (A1) (A1) (A1) (A2) (A2) (A2) (A2)
                 (A2) (A2) (A2) (A2) (A2) (A2) (A2) (A2) (A2) (A2)
                 (A2) (A2) (A2) (A2) (A2) (A2) (B1) (B1) (B1) (B1)
                 (B1) (B1) (B1) (B1) (B1) (B1) (B1) (B1) (B1) (B1)
                 (B1) (B1) (B1) (B1) (B1) (B2) (B2) (B2) (B2) (B2)
                 (B2) (B2) (B2) (B2) (B2) (B2) (B2) (B2) (B2) (B2)
                 (B2) (B2) (B2) (B2) (B2) (B2) (B2) (B2) (B2) (B2)
                 (B2) (B2) (B2) (B2) (B2) (B2) (B2) (B2) (B2) (B2)
                 (B2) (B2) (B2) (B2) (B2) (B2) (B2) (B2) (B2) (B2)
                 (B2) (B2) (B2) (B2) (B2) (B2) (B2) (B2) (B2) (B2)
                 (B2) (B2) (B2)
 Keep R1 ints in memory in symmetry-blocked form, NReq=294359170.
 LinEq1:  Iter=  0 NonCon=     1 RMS=8.41D-07 Max=2.33D-05 NDo=     1
 AX will form     1 AO Fock derivatives at one time.
 LinEq1:  Iter=  1 NonCon=     1 RMS=2.10D-07 Max=5.24D-06 NDo=     1
 LinEq1:  Iter=  2 NonCon=     1 RMS=1.22D-07 Max=2.97D-06 NDo=     1
 LinEq1:  Iter=  3 NonCon=     1 RMS=4.02D-08 Max=8.48D-07 NDo=     1
 LinEq1:  Iter=  4 NonCon=     1 RMS=1.18D-08 Max=2.77D-07 NDo=     1
 LinEq1:  Iter=  5 NonCon=     1 RMS=6.66D-09 Max=1.18D-07 NDo=     1
 LinEq1:  Iter=  6 NonCon=     1 RMS=1.61D-09 Max=3.05D-08 NDo=     1
 LinEq1:  Iter=  7 NonCon=     1 RMS=7.20D-10 Max=9.65D-09 NDo=     1
 LinEq1:  Iter=  8 NonCon=     0 RMS=1.00D-10 Max=1.82D-09 NDo=     1
 Linear equations converged to 8.070D-10 8.070D-09 after     8 iterations.
 SCF Done:  E(RwB97XD) =  -232.220962835     a.u. after    2 cycles
            Convg  =    0.7053D-08                    10 Fock formations.
              S**2 =  0.0000                  -V/T =  2.0045
 Calling FoFJK, ICntrl=      2127 FMM=F ISym2X=1 I1Cent= 0 IOpClX= 0 NMat=1 NMatS=1 NMatT=0.
 ***** Axes restored to original set *****
 -------------------------------------------------------------------
 Center     Atomic                   Forces (Hartrees/Bohr)
 Number     Number              X              Y              Z
 -------------------------------------------------------------------
      1        6           0.000026041   -0.000014463    0.000000047
      2        6          -0.000026038   -0.000014459   -0.000000005
      3        6          -0.000005586    0.000027494   -0.000000023
      4        1          -0.000003153    0.000001277    0.000000005
      5        6           0.000005581    0.000027493   -0.000000042
      6        1           0.000003153    0.000001278   -0.000000003
      7        6           0.000018487   -0.000012193    0.000000063
      8        1          -0.000000657   -0.000003454   -0.000000003
      9        6          -0.000018485   -0.000012191   -0.000000041
     10        1          -0.000001421    0.000001336    0.000000007
     11        1           0.000001421    0.000001336   -0.000000003
     12        1           0.000000656   -0.000003454   -0.000000002
 -------------------------------------------------------------------
 Cartesian Forces:  Max     0.000027494 RMS     0.000011036

 GradGradGradGradGradGradGradGradGradGradGradGradGradGradGradGradGradGrad
 Berny optimization.
 Using GEDIIS/GDIIS optimizer.
 FormGI is forming the generalized inverse of G from B-inverse, IUseBI=4.
 Internal  Forces:  Max     0.000015919 RMS     0.000004820
 Search for a local minimum.
 Step number   4 out of a maximum of   64
 All quantities printed in internal units (Hartrees-Bohrs-Radians)
 Mixed Optimization -- En-DIIS/RFO-DIIS
 Swapping is turned off.
 Update second derivatives using D2CorX and points    1    2    3    4
 DE= -1.31D-08 DEPred=-9.54D-09 R= 1.37D+00
 Trust test= 1.37D+00 RLast= 2.35D-04 DXMaxT set to 3.00D-01
 ITU=  0  1  1  0
     Eigenvalues ---    0.02096   0.02097   0.02098   0.02099   0.02100
     Eigenvalues ---    0.02100   0.02103   0.02104   0.02104   0.13137
     Eigenvalues ---    0.15998   0.16000   0.16000   0.16000   0.16029
     Eigenvalues ---    0.21761   0.22000   0.22000   0.31685   0.35654
     Eigenvalues ---    0.35690   0.35754   0.35758   0.35777   0.37589
     Eigenvalues ---    0.41516   0.41547   0.45756   0.47534   0.52207
 En-DIIS/RFO-DIIS IScMMF=        0 using points:     4    3    2
 RFO step:  Lambda= 0.00000000D+00.
 DidBck=F Rises=F RFO-DIIS coefs:    1.59435   -0.59322   -0.00113
 Iteration  1 RMS(Cart)=  0.00001663 RMS(Int)=  0.00000000
 Iteration  2 RMS(Cart)=  0.00000000 RMS(Int)=  0.00000000
 ClnCor:  largest displacement from symmetrization is 2.03D-06 for atom    10.
 Variable       Old X    -DE/DX   Delta X   Delta X   Delta X     New X
                                 (Linear)    (Quad)   (Total)
    R1        2.62829   0.00001   0.00006   0.00000   0.00006   2.62834
    R2        2.62811  -0.00002  -0.00005  -0.00001  -0.00006   2.62805
    R3        2.04929   0.00000  -0.00002   0.00002   0.00000   2.04928
    R4        2.62811  -0.00002  -0.00005  -0.00001  -0.00006   2.62805
    R5        2.04929   0.00000  -0.00002   0.00002   0.00000   2.04928
    R6        2.62800   0.00001   0.00003   0.00002   0.00005   2.62804
    R7        2.04940   0.00000  -0.00001   0.00001   0.00000   2.04941
    R8        2.62800   0.00001   0.00003   0.00002   0.00005   2.62804
    R9        2.04940   0.00000  -0.00001   0.00001   0.00000   2.04941
   R10        2.62840  -0.00001  -0.00002  -0.00003  -0.00005   2.62835
   R11        2.04929   0.00000  -0.00002   0.00002   0.00000   2.04928
   R12        2.04929   0.00000  -0.00002   0.00002   0.00000   2.04928
    A1        2.09438   0.00000  -0.00001   0.00000  -0.00001   2.09438
    A2        2.09393   0.00000  -0.00002  -0.00001  -0.00003   2.09390
    A3        2.09487   0.00000   0.00003   0.00001   0.00004   2.09491
    A4        2.09438   0.00000  -0.00001   0.00000  -0.00001   2.09438
    A5        2.09393   0.00000  -0.00002  -0.00001  -0.00003   2.09390
    A6        2.09487   0.00000   0.00003   0.00001   0.00004   2.09491
    A7        2.09442   0.00000   0.00002   0.00000   0.00001   2.09443
    A8        2.09434   0.00000   0.00002   0.00001   0.00003   2.09437
    A9        2.09443   0.00000  -0.00004  -0.00001  -0.00005   2.09438
   A10        2.09442   0.00000   0.00002   0.00000   0.00001   2.09443
   A11        2.09434   0.00000   0.00002   0.00001   0.00003   2.09437
   A12        2.09443   0.00000  -0.00004  -0.00001  -0.00005   2.09438
   A13        2.09438   0.00000  -0.00001   0.00000  -0.00001   2.09438
   A14        2.09494   0.00000   0.00000  -0.00001  -0.00002   2.09492
   A15        2.09386   0.00000   0.00001   0.00001   0.00002   2.09389
   A16        2.09438   0.00000  -0.00001   0.00000  -0.00001   2.09438
   A17        2.09494   0.00000   0.00000  -0.00001  -0.00002   2.09492
   A18        2.09386   0.00000   0.00001   0.00001   0.00002   2.09389
    D1        0.00000   0.00000   0.00000   0.00000   0.00000   0.00000
    D2        3.14159   0.00000   0.00000   0.00000   0.00000   3.14159
    D3        3.14159   0.00000   0.00000   0.00000   0.00000   3.14159
    D4        0.00000   0.00000   0.00000   0.00000   0.00000   0.00000
    D5        0.00000   0.00000   0.00000   0.00000   0.00000   0.00000
    D6        3.14159   0.00000   0.00000   0.00000   0.00000   3.14159
[...]
 Vib (V=0)    1  0.115910D+01          0.064122          0.147646
 Vib (V=0)    2  0.115842D+01          0.063867          0.147059
 Electronic      0.100000D+01          0.000000          0.000000
 Translational   0.271012D+08          7.432989         17.115090
 Rotational      0.447094D+05          4.650399         10.707939
 ***** Axes restored to original set *****
 -------------------------------------------------------------------
 Center     Atomic                   Forces (Hartrees/Bohr)
 Number     Number              X              Y              Z
 -------------------------------------------------------------------
      1        6          -0.000001432   -0.000001386    0.000000000
      2        6           0.000001432   -0.000001386    0.000000000
      3        6           0.000002177    0.000001171    0.000000000
      4        1           0.000000328    0.000000911    0.000000000
      5        6          -0.000002177    0.000001171    0.000000000
      6        1          -0.000000328    0.000000911    0.000000000
      7        6           0.000004992   -0.000000187    0.000000000
      8        1          -0.000000230   -0.000000194    0.000000000
      9        6          -0.000004992   -0.000000187    0.000000000
     10        1          -0.000001172   -0.000000316    0.000000000
     11        1           0.000001172   -0.000000316    0.000000000
     12        1           0.000000230   -0.000000194    0.000000000
 -------------------------------------------------------------------
 Cartesian Forces:  Max     0.000004992 RMS     0.000001444
 FormGI is forming the generalized inverse of G from B-inverse, IUseBI=4.

 GradGradGradGradGradGradGradGradGradGradGradGradGradGradGradGradGradGrad
 Berny optimization.
 Internal  Forces:  Max     0.000002154 RMS     0.000000605
 Search for a local minimum.
 Step number   1 out of a maximum of    2
 All quantities printed in internal units (Hartrees-Bohrs-Radians)
 Second derivative matrix not updated -- analytic derivatives used.
 ITU=  0
     Eigenvalues ---    0.01704   0.01731   0.01841   0.02411   0.02426
     Eigenvalues ---    0.02618   0.02898   0.02902   0.02963   0.10909
     Eigenvalues ---    0.11252   0.11462   0.12085   0.12545   0.12718
     Eigenvalues ---    0.19380   0.19502   0.19554   0.27712   0.36019
     Eigenvalues ---    0.36019   0.36274   0.36278   0.36311   0.36457
     Eigenvalues ---    0.42151   0.42272   0.48248   0.48318   0.52080
 Angle between quadratic step and forces=  24.87 degrees.
 Linear search not attempted -- first point.
 Iteration  1 RMS(Cart)=  0.00000300 RMS(Int)=  0.00000000
 Iteration  2 RMS(Cart)=  0.00000000 RMS(Int)=  0.00000000
 ClnCor:  largest displacement from symmetrization is 2.50D-12 for atom    10.
 Variable       Old X    -DE/DX   Delta X   Delta X   Delta X     New X
                                 (Linear)    (Quad)   (Total)
    R1        2.62834   0.00000   0.00000   0.00000   0.00000   2.62834
    R2        2.62805   0.00000   0.00000   0.00000   0.00000   2.62805
    R3        2.04928   0.00000   0.00000   0.00000   0.00000   2.04929
    R4        2.62805   0.00000   0.00000   0.00000   0.00000   2.62805
    R5        2.04928   0.00000   0.00000   0.00000   0.00000   2.04929
    R6        2.62804   0.00000   0.00000   0.00000   0.00000   2.62805
    R7        2.04941   0.00000   0.00000   0.00000   0.00000   2.04941
    R8        2.62804   0.00000   0.00000   0.00000   0.00000   2.62805
    R9        2.04941   0.00000   0.00000   0.00000   0.00000   2.04941
   R10        2.62835   0.00000   0.00000  -0.00001  -0.00001   2.62834
   R11        2.04928   0.00000   0.00000   0.00000   0.00000   2.04929
   R12        2.04928   0.00000   0.00000   0.00000   0.00000   2.04929
    A1        2.09438   0.00000   0.00000   0.00000   0.00000   2.09438
    A2        2.09390   0.00000   0.00000   0.00000   0.00000   2.09389
    A3        2.09491   0.00000   0.00000   0.00000   0.00000   2.09491
    A4        2.09438   0.00000   0.00000   0.00000   0.00000   2.09438
    A5        2.09390   0.00000   0.00000   0.00000   0.00000   2.09389
    A6        2.09491   0.00000   0.00000   0.00000   0.00000   2.09491
    A7        2.09443   0.00000   0.00000  -0.00001  -0.00001   2.09443
    A8        2.09437   0.00000   0.00000   0.00001   0.00001   2.09438
    A9        2.09438   0.00000   0.00000   0.00000   0.00000   2.09438
   A10        2.09443   0.00000   0.00000  -0.00001  -0.00001   2.09443
   A11        2.09437   0.00000   0.00000   0.00001   0.00001   2.09438
   A12        2.09438   0.00000   0.00000   0.00000   0.00000   2.09438
   A13        2.09438   0.00000   0.00000   0.00000   0.00000   2.09438
   A14        2.09492   0.00000   0.00000  -0.00001  -0.00001   2.09491
   A15        2.09389   0.00000   0.00000   0.00001   0.00001   2.09389
   A16        2.09438   0.00000   0.00000   0.00000   0.00000   2.09438
   A17        2.09492   0.00000   0.00000  -0.00001  -0.00001   2.09491
   A18        2.09389   0.00000   0.00000   0.00001   0.00001   2.09389
    D1        0.00000   0.00000   0.00000   0.00000   0.00000   0.00000
    D2        3.14159   0.00000   0.00000   0.00000   0.00000   3.14159
    D3        3.14159   0.00000   0.00000   0.00000   0.00000   3.14159
    D4        0.00000   0.00000   0.00000   0.00000   0.00000   0.00000
    D5        0.00000   0.00000   0.00000   0.00000   0.00000   0.00000
    D6        3.14159   0.00000   0.00000   0.00000   0.00000   3.14159
    D7        3.14159   0.00000   0.00000   0.00000   0.00000   3.14159
    D8        0.00000   0.00000   0.00000   0.00000   0.00000   0.00000
    D9        0.00000   0.00000   0.00000   0.00000   0.00000   0.00000
   D10        3.14159   0.00000   0.00000   0.00000   0.00000   3.14159
   D11        3.14159   0.00000   0.00000   0.00000   0.00000   3.14159
   D12        0.00000   0.00000   0.00000   0.00000   0.00000   0.00000
   D13        0.00000   0.00000   0.00000   0.00000   0.00000   0.00000
   D14        3.14159   0.00000   0.00000   0.00000   0.00000   3.14159
   D15        3.14159   0.00000   0.00000   0.00000   0.00000   3.14159
   D16        0.00000   0.00000   0.00000   0.00000   0.00000   0.00000
   D17        0.00000   0.00000   0.00000   0.00000   0.00000   0.00000
   D18        3.14159   0.00000   0.00000   0.00000   0.00000   3.14159
   D19        3.14159   0.00000   0.00000   0.00000   0.00000   3.14159
   D20        0.00000   0.00000   0.00000   0.00000   0.00000   0.00000
   D21        0.00000   0.00000   0.00000   0.00000   0.00000   0.00000
   D22        3.14159   0.00000   0.00000   0.00000   0.00000   3.14159
   D23        3.14159   0.00000   0.00000   0.00000   0.00000   3.14159
   D24        0.00000   0.00000   0.00000   0.00000   0.00000   0.00000
         Item               Value     Threshold  Converged?
 Maximum Force            0.000002     0.000015     YES
 RMS     Force            0.000001     0.000010     YES
 Maximum Displacement     0.000009     0.000060     YES
 RMS     Displacement     0.000003     0.000040     YES
 Predicted change in Energy=-4.839227D-11
 Optimization completed.
    -- Stationary point found.
                           ----------------------------
                           !   Optimized Parameters   !
                           ! (Angstroms and Degrees)  !
 --------------------------                            --------------------------
 ! Name  Definition              Value          Derivative Info.                !
 --------------------------------------------------------------------------------
 ! R1    R(1,2)                  1.3909         -DE/DX =    0.0                 !
 ! R2    R(1,3)                  1.3907         -DE/DX =    0.0                 !
 ! R3    R(1,4)                  1.0844         -DE/DX =    0.0                 !
 ! R4    R(2,5)                  1.3907         -DE/DX =    0.0                 !
 ! R5    R(2,6)                  1.0844         -DE/DX =    0.0                 !
 ! R6    R(3,9)                  1.3907         -DE/DX =    0.0                 !
 ! R7    R(3,12)                 1.0845         -DE/DX =    0.0                 !
 ! R8    R(5,7)                  1.3907         -DE/DX =    0.0                 !
 ! R9    R(5,8)                  1.0845         -DE/DX =    0.0                 !
 ! R10   R(7,9)                  1.3909         -DE/DX =    0.0                 !
 ! R11   R(7,10)                 1.0844         -DE/DX =    0.0                 !
 ! R12   R(9,11)                 1.0844         -DE/DX =    0.0                 !
 ! A1    A(2,1,3)              119.999          -DE/DX =    0.0                 !
 ! A2    A(2,1,4)              119.9716         -DE/DX =    0.0                 !
 ! A3    A(3,1,4)              120.0295         -DE/DX =    0.0                 !
 ! A4    A(1,2,5)              119.999          -DE/DX =    0.0                 !
 ! A5    A(1,2,6)              119.9716         -DE/DX =    0.0                 !
 ! A6    A(5,2,6)              120.0295         -DE/DX =    0.0                 !
 ! A7    A(1,3,9)              120.002          -DE/DX =    0.0                 !
 ! A8    A(1,3,12)             119.9988         -DE/DX =    0.0                 !
 ! A9    A(9,3,12)             119.9991         -DE/DX =    0.0                 !
 ! A10   A(2,5,7)              120.002          -DE/DX =    0.0                 !
 ! A11   A(2,5,8)              119.9988         -DE/DX =    0.0                 !
 ! A12   A(7,5,8)              119.9991         -DE/DX =    0.0                 !
 ! A13   A(5,7,9)              119.999          -DE/DX =    0.0                 !
 ! A14   A(5,7,10)             120.0301         -DE/DX =    0.0                 !
 ! A15   A(9,7,10)             119.971          -DE/DX =    0.0                 !
 ! A16   A(3,9,7)              119.999          -DE/DX =    0.0                 !
 ! A17   A(3,9,11)             120.0301         -DE/DX =    0.0                 !
 ! A18   A(7,9,11)             119.971          -DE/DX =    0.0                 !
 ! D1    D(3,1,2,5)              0.0            -DE/DX =    0.0                 !
 ! D2    D(3,1,2,6)            180.0            -DE/DX =    0.0                 !
 ! D3    D(4,1,2,5)            180.0            -DE/DX =    0.0                 !
 ! D4    D(4,1,2,6)              0.0            -DE/DX =    0.0                 !
 ! D5    D(2,1,3,9)              0.0            -DE/DX =    0.0                 !
 ! D6    D(2,1,3,12)           180.0            -DE/DX =    0.0                 !
 ! D7    D(4,1,3,9)            180.0            -DE/DX =    0.0                 !
 ! D8    D(4,1,3,12)             0.0            -DE/DX =    0.0                 !
 ! D9    D(1,2,5,7)              0.0            -DE/DX =    0.0                 !
 ! D10   D(1,2,5,8)            180.0            -DE/DX =    0.0                 !
 ! D11   D(6,2,5,7)            180.0            -DE/DX =    0.0                 !
 ! D12   D(6,2,5,8)              0.0            -DE/DX =    0.0                 !
 ! D13   D(1,3,9,7)              0.0            -DE/DX =    0.0                 !
 ! D14   D(1,3,9,11)           180.0            -DE/DX =    0.0                 !
 ! D15   D(12,3,9,7)           180.0            -DE/DX =    0.0                 !
 ! D16   D(12,3,9,11)            0.0            -DE/DX =    0.0                 !
 ! D17   D(2,5,7,9)              0.0            -DE/DX =    0.0                 !
 ! D18   D(2,5,7,10)           180.0            -DE/DX =    0.0                 !
 ! D19   D(8,5,7,9)            180.0            -DE/DX =    0.0                 !
 ! D20   D(8,5,7,10)             0.0            -DE/DX =    0.0                 !
 ! D21   D(5,7,9,3)              0.0            -DE/DX =    0.0                 !
 ! D22   D(5,7,9,11)           180.0            -DE/DX =    0.0                 !
 ! D23   D(10,7,9,3)           180.0            -DE/DX =    0.0                 !
 ! D24   D(10,7,9,11)            0.0            -DE/DX =    0.0                 !
 --------------------------------------------------------------------------------
 GradGradGradGradGradGradGradGradGradGradGradGradGradGradGradGradGradGrad

 1\1\GINC-COMPUTE-2-6\Freq\RwB97XD\6-311++G(d,p)\C6H6\NDC104\04-May-201
 7\0\\#N Geom=AllCheck Guess=TCheck SCRF=Check GenChk RwB97XD/6-311++G(
 d,p) Freq\\ligand\\0,1\C,0.9959298878,0.9925630148,0.\C,-0.3949298878,
 0.9925630148,0.\C,1.691260301,-0.2118337847,0.\H,1.5376807305,1.931979
 9121,0.\C,-1.090260301,-0.2118337847,0.\H,-0.9366807305,1.9319799121,0
 .\C,-0.3949319569,-1.4162279216,0.\H,-2.1747596396,-0.2118308487,0.\C,
 0.9959319569,-1.4162279216,0.\H,-0.9366733751,-2.3556503918,0.\H,1.537
 6733751,-2.3556503918,0.\H,2.7757596396,-0.2118308487,0.\\Version=ES64
 L-G09RevD.01\State=1-A1\HF=-232.2209628\RMSD=0.000e+00\RMSF=1.444e-06\
 ZeroPoint=0.1010605\Thermal=0.1054368\Dipole=0.,-0.0000006,0.\DipoleDe
 riv=-0.0206633,0.0640568,0.,0.064145,0.0541646,0.,0.0000002,-0.0000002
 ,-0.1437597,-0.0206632,-0.0640569,0.,-0.064145,0.0541645,0.,0.0000001,
 0.0000002,-0.1437597,0.0927692,0.,0.,0.,-0.0581407,0.,0.,0.,-0.1437749
 ,0.0271499,-0.07599,0.,-0.0763766,-0.0607471,0.,0.,0.,0.1436335,0.0927
 692,0.0000001,0.,0.,-0.0581407,0.,0.,0.,-0.1437749,0.0271499,0.07599,0
 .,0.0763766,-0.0607471,0.,0.,0.,0.1436335,-0.0206637,0.0640564,0.,0.06
 41452,0.054165,0.,0.,0.,-0.1437598,-0.1057432,0.,0.,0.000001,0.0713071
 ,0.,0.,0.,0.1440274,-0.0206637,-0.0640564,0.,-0.0641452,0.054165,0.,0.
 ,0.,-0.1437597,0.0271513,-0.0759877,0.,-0.0763772,-0.0607488,0.,0.,0.,
 0.1436334,0.0271513,0.0759877,0.,0.0763772,-0.0607488,0.,0.,0.,0.14363
 34,-0.1057432,0.,0.,-0.000001,0.0713071,0.,0.,0.,0.1440274\Polar=77.18
 95496,-0.0000005,77.1393866,-0.0000003,0.0000004,40.9958523\PG=C02V [S
 GV(C6H6)]\NImag=0\\0.69322889,0.03398456,0.73374098,0.,-0.00000001,0.1
 3914629,-0.34321428,-0.03637134,-0.00000004,0.69322889,0.03637134,-0.1
 3216016,0.,-0.03398456,0.73374098,-0.00000004,0.,-0.06551048,0.,0.0000
 0001,0.13914629,-0.18520130,0.12734563,0.00000001,-0.02542980,0.029731
 38,0.00000004,0.75185099,0.05465657,-0.29167400,0.00000001,0.08461669,
 0.04029252,-0.00000001,0.00000436,0.67506347,0.,0.,-0.06561385,0.00000
 001,0.,0.00838210,0.,0.,0.13882228,-0.13039852,-0.12154184,0.,-0.00957
 684,-0.02916937,0.,0.01168839,0.01525173,0.,0.13441205,-0.12153181,-0.
 27175727,0.,0.00295240,0.00365774,0.,-0.01686014,-0.01751966,0.,0.1307
 6749,0.28631136,0.,0.,-0.03798580,0.,0.,0.00353867,0.,0.,0.00347959,0.
 ,0.,0.02604881,-0.02542980,-0.02973138,0.00000004,-0.18520130,-0.12734
 563,0.00000001,-0.00137942,-0.00000003,0.,-0.00579736,0.00043885,0.,0.
 75185099,-0.08461669,0.04029252,0.00000001,-0.05465657,-0.29167400,-0.
 00000001,0.00000003,-0.08048367,0.,0.00108774,0.00184111,0.,-0.0000043
 6,0.67506347,0.00000001,0.,0.00838210,0.,0.,-0.06561385,0.,0.,-0.00798
 980,0.,0.,0.00750789,0.,0.,0.13882228,-0.00957684,0.02916937,0.,-0.130
 39852,0.12154184,0.,-0.00579736,-0.00108774,0.,0.00073181,-0.00042789,
 0.,0.01168839,-0.01525173,0.,0.13441205,-0.00295240,0.00365774,0.,0.12
 153181,-0.27175727,0.,-0.00043885,0.00184111,0.,0.00042789,0.00070783,
 0.,0.01686014,-0.01751966,0.,-0.13076749,0.28631136,0.,0.,0.00353867,0
 .,0.,-0.03798580,0.,0.,0.00750789,0.,0.,-0.00412440,0.,0.,0.00347959,0
 .,0.,0.02604881,-0.06091448,0.03400083,-0.00000002,0.07343670,0.027455
 33,-0.00000001,-0.02542976,-0.08461662,0.00000001,-0.00083504,0.000950
 51,0.,-0.18520317,0.05466024,0.00000001,-0.00071482,-0.00398611,0.,0.6
 9321849,0.03400093,-0.02156416,0.,-0.02745535,-0.05814254,0.,-0.029731
 40,0.04029254,0.,0.00096263,0.00025366,0.,0.12734897,-0.29168001,0.,-0
 .00334804,-0.00318924,0.,0.03397945,0.73374998,0.,0.,-0.00798263,0.,0.
 ,0.00831893,-0.00000002,0.,0.00838209,0.,0.,-0.00086237,0.,0.,-0.06561
 328,0.,0.,0.00751424,0.,0.00000001,0.13914642,0.00060374,-0.00325184,-
 0.00000001,-0.01098427,0.00376329,0.,0.00081309,0.,0.,-0.00067302,0.00
 017283,0.,-0.34180264,0.00000075,0.,0.00071158,-0.00041998,0.,-0.01098
 417,-0.00376326,0.,0.36176087,-0.00258289,-0.00453541,0.,-0.02825062,0
 .00507781,0.,0.,-0.00138654,0.,-0.00139437,0.00003402,0.,0.00000083,-0
 .05906754,0.,0.00043074,0.00070943,0.,0.02825061,0.00507787,0.,-0.0000
 0076,0.05776436,0.,0.,0.00752009,0.,0.,0.00353467,0.,0.,-0.00086796,0.
 ,0.,0.00009424,0.,0.,-0.03747634,0.,0.,-0.00411921,0.,0.,0.00353471,0.
 ,0.,0.02547880,0.07343670,-0.02745533,-0.00000001,-0.06091448,-0.03400
 083,-0.00000002,-0.18520317,-0.05466024,0.00000001,-0.00071482,0.00398
 611,0.,-0.02542976,0.08461662,0.00000001,-0.00083504,-0.00095051,0.,-0
 .34320428,-0.03637153,0.,0.00060377,0.00258286,0.,0.69321849,0.0274553
 5,-0.05814254,0.,-0.03400093,-0.02156416,0.,-0.12734897,-0.29168001,0.
 ,0.00334804,-0.00318924,0.,0.02973140,0.04029254,0.,-0.00096263,0.0002
 5366,0.,0.03637153,-0.13216049,0.,0.00325181,-0.00453539,0.,-0.0339794
 5,0.73374998,0.,0.,0.00831893,0.,0.,-0.00798263,0.,0.,-0.06561328,0.,0
 .,0.00751424,-0.00000002,0.,0.00838209,0.,0.,-0.00086237,0.,0.,-0.0655
 1133,0.,0.,0.00752023,0.,-0.00000001,0.13914642,-0.00083504,0.00096264
 ,0.,-0.00071483,0.00334803,0.,-0.00579743,0.00108771,0.,0.00006679,-0.
 00008875,0.,0.01168848,0.01525170,0.,0.00038499,0.00077957,0.,-0.13039
 625,-0.12154017,0.,0.00071157,-0.00043080,0.,-0.00957703,-0.02916957,0
 .,0.13440999,0.00095049,0.00025367,0.,0.00398611,-0.00318916,0.,0.0004
 3881,0.00184108,0.,-0.00008875,-0.00003639,0.,-0.01686001,-0.01751931,
 0.,-0.00077956,-0.00101258,0.,-0.12153055,-0.27175974,0.,0.00041999,0.
 00070943,0.,0.00295236,0.00365755,0.,0.13076615,0.28631357,0.,0.,-0.00
 086237,0.,0.,0.00751436,0.,0.,0.00750777,0.,0.,-0.00119078,0.,0.,0.003
 47953,0.,0.,0.00009914,0.,0.,-0.03798573,0.,0.,-0.00411930,0.,0.,0.003
 53871,0.,0.,0.02604875,-0.00071483,-0.00334803,0.,-0.00083504,-0.00096
 264,0.,0.01168848,-0.01525170,0.,0.00038499,-0.00077957,0.,-0.00579743
 ,-0.00108771,0.,0.00006679,0.00008875,0.,-0.00957703,0.02916957,0.,-0.
 00067302,0.00139438,0.,-0.13039625,0.12154017,0.,0.00073179,-0.0004278
 6,0.,0.13440999,-0.00398611,-0.00318916,0.,-0.00095049,0.00025367,0.,0
 .01686001,-0.01751931,0.,0.00077956,-0.00101258,0.,-0.00043881,0.00184
 108,0.,0.00008875,-0.00003639,0.,-0.00295236,0.00365755,0.,-0.00017282
 ,0.00003401,0.,0.12153055,-0.27175974,0.,0.00042786,0.00070787,0.,-0.1
 3076615,0.28631357,0.,0.,0.00751436,0.,0.,-0.00086237,0.,0.,0.00347953
 ,0.,0.,0.00009914,0.,0.,0.00750777,0.,0.,-0.00119078,0.,0.,0.00353871,
 0.,0.,0.00009423,0.,0.,-0.03798573,0.,0.,-0.00412431,0.,0.,0.02604875,
 -0.01098427,-0.00376329,0.,0.00060374,0.00325184,-0.00000001,-0.341802
 64,-0.00000075,0.,0.00071158,0.00041998,0.,0.00081309,0.,0.,-0.0006730
 2,-0.00017283,0.,0.00060377,-0.00325181,0.,-0.00008751,0.,0.,-0.010984
 17,0.00376326,0.,-0.00067302,0.00017282,0.,0.00071157,-0.00041999,0.,0
 .36176087,0.02825062,0.00507781,0.,0.00258289,-0.00453541,0.,-0.000000
 83,-0.05906754,0.,-0.00043074,0.00070943,0.,0.,-0.00138654,0.,0.001394
 37,0.00003402,0.,-0.00258286,-0.00453539,0.,0.,0.00011794,0.,-0.028250
 61,0.00507787,0.,-0.00139438,0.00003401,0.,0.00043080,0.00070943,0.,0.
 00000076,0.05776436,0.,0.,0.00353467,0.,0.,0.00752009,0.,0.,-0.0374763
 4,0.,0.,-0.00411921,0.,0.,-0.00086796,0.,0.,0.00009424,0.,0.,0.0075202
 3,0.,0.,-0.00119416,0.,0.,0.00353471,0.,0.,0.00009423,0.,0.,-0.0041193
 0,0.,0.,0.02547880\\0.00000143,0.00000139,0.,-0.00000143,0.00000139,0.
 ,-0.00000218,-0.00000117,0.,-0.00000033,-0.00000091,0.,0.00000218,-0.0
 0000117,0.,0.00000033,-0.00000091,0.,-0.00000499,0.00000019,0.,0.00000
 023,0.00000019,0.,0.00000499,0.00000019,0.,0.00000117,0.00000032,0.,-0
 .00000117,0.00000032,0.,-0.00000023,0.00000019,0.\\\@


 IF GOD HAD MEANT MAN TO SEE THE SUN RISE, HE
 WOULD HAVE SCHEDULED IT FOR A LATER HOUR.
 Job cpu time:       0 days  0 hours  4 minutes 15.4 seconds.
 File lengths (MBytes):  RWF=     25 Int=      0 D2E=      0 Chk=      3 Scr=      1
 Normal termination of Gaussian 09 at Thu May  4 09:19:46 2017.
